LAMMPS (17 Jan 2017)
# Compute elastic constant tensor for a crystal
#
# Written by Aidan Thompson (Sandia, athomps@sandia.gov)
#
#  This script uses the following three include files.
#
#   init.mod      (must be modified for different crystal structures)
# 	       	  Define units, deformation parameters and initial
#		  configuration of the atoms and simulation cell.
#
#
#   potential.mod    (must be modified for different pair styles)
# 		     Define pair style and other attributes
#		     not stored in restart file
#
#
#   displace.mod    (displace.mod should not need to be modified)
# 		    Perform positive and negative box displacements
# 		    in direction ${dir} and size ${up}.
# 		    It uses the resultant changes
#		    in stress to compute one
# 		    row of the elastic stiffness tensor
#
#		    Inputs variables:
#		    	   dir = the Voigt deformation component
#		    		    (1,2,3,4,5,6)
#		    Global constants:
#       	    	   up = the deformation magnitude (strain units)
#       		   cfac = conversion from LAMMPS pressure units to
#               	   output units for elastic constants
#
#
#  To run this on a different system, it should only be necessary to
#  modify the files init.mod and potential.mod. In order to calculate
#  the elastic constants correctly, care must be taken to specify
#  the correct units in init.mod (units, cfac and cunits). It is also
#  important to verify that the minimization of energy w.r.t atom
#  positions in the deformed cell is fully converged.
#  One indication of this is that the elastic constants are insensitive
#  to the choice of the variable ${up} in init.mod. Another is to check
#  the final max and two-norm forces reported in the log file. If you know
#  that minimization is not required, you can set maxiter = 0.0 in
#  init.mod.
#

include init.mod
# NOTE: This script can be modified for different atomic structures,
# units, etc. See in.elastic for more info.
#

# Define the finite deformation size. Try several values of this
# variable to verify that results do not depend on it.
variable up equal 1.0e-6

# Define the amount of random jiggle for atoms
# This prevents atoms from staying on saddle points
variable atomjiggle equal 1.0e-5

# Uncomment one of these blocks, depending on what units
# you are using in LAMMPS and for output

# metal units, elastic constants in eV/A^3
#units		metal
#variable cfac equal 6.2414e-7
#variable cunits string eV/A^3

# metal units, elastic constants in GPa
units		metal
variable cfac equal 1.0e-4
variable cunits string GPa

# real units, elastic constants in GPa
#units		real
#variable cfac equal 1.01325e-4
#variable cunits string GPa

# Define minimization parameters
variable etol equal 0.0
variable ftol equal 1.0e-10
variable maxiter equal 100
variable maxeval equal 1000
variable dmax equal 1.0e-2

# generate the box and atom positions using a diamond lattice
variable a equal 5.43

boundary	p p p

lattice         diamond $a
lattice         diamond 5.43
Lattice spacing in x,y,z = 5.43 5.43 5.43
region		box prism 0 2.0 0 3.0 0 4.0 0.0 0.0 0.0
create_box	1 box
Created triclinic box = (0 0 0) to (10.86 16.29 21.72) with tilt (0 0 0)
  1 by 1 by 1 MPI processor grid
create_atoms	1 box
Created 192 atoms

# Need to set mass to something, just to satisfy LAMMPS
mass 1 1.0e-20

include potential.mod
# NOTE: This script can be modified for different pair styles
# See in.elastic for more info.

# Choose potential
pair_style		nn/angular2
pair_coeff		* * ../../TensorFlow/TrainingData/NNPotentialFinal 3.77118

# Setup neighbor style
neighbor 1.0 nsq
neigh_modify once no every 1 delay 0 check yes

# Setup minimization style
min_style	     cg
min_modify	     dmax ${dmax} line quadratic
min_modify	     dmax 0.01 line quadratic

# Setup output
thermo		1
thermo_style custom step temp pe press pxx pyy pzz pxy pxz pyz lx ly lz vol
thermo_modify norm no

# Compute initial state
fix 3 all box/relax  aniso 0.0
minimize ${etol} ${ftol} ${maxiter} ${maxeval}
minimize 0 ${ftol} ${maxiter} ${maxeval}
minimize 0 1e-10 ${maxiter} ${maxeval}
minimize 0 1e-10 100 ${maxeval}
minimize 0 1e-10 100 1000
Neighbor list info ...
  update every 1 steps, delay 0 steps, check yes
  max neighbors/atom: 2000, page size: 100000
  master list distance cutoff = 4.77118
  ghost atom cutoff = 4.77118
  1 neighbor lists, perpetual/occasional/extra = 1 0 0
  (1) pair nn/angular2, perpetual
      pair build: full/nsq
      stencil: none
      bin: none
Memory usage per processor = 4.17725 Mbytes
Step Temp PotEng Press Pxx Pyy Pzz Pxy Pxz Pyz Lx Ly Lz Volume 
       0            0   -832.42049   -304.57179   -304.57179   -304.57179   -304.57179 5.6985965e-11 3.4801771e-11 2.0488915e-11        10.86        16.29        21.72    3842.4722 
       1            0    -832.4206 -0.0018478861 -0.0018478861 -0.0018478862 -0.0018478861 -3.1323008e-11 -1.1948672e-10 1.6244695e-10    10.858929    16.288394    21.717858    3841.3355 
       2            0    -832.4206 -3.5933067e-08 -3.5864407e-08 -3.603644e-08 -3.5898353e-08 -2.2078056e-10 3.0982219e-11 2.9513609e-10    10.858929    16.288394    21.717858    3841.3355 
       3            0    -832.4206 2.6871884e-11 1.7151201e-11 -2.21061e-11 8.5570549e-11 -4.8136967e-10 1.6160096e-10 3.6111619e-10    10.858929    16.288394    21.717858    3841.3355 
Loop time of 0.186071 on 1 procs for 3 steps with 192 atoms

101.0% CPU use with 1 MPI tasks x no OpenMP threads

Minimization stats:
  Stopping criterion = force tolerance
  Energy initial, next-to-last, final = 
        -832.420494683     -832.420602749     -832.420602749
  Force two-norm initial, final = 1.26518 6.51591e-13
  Force max component initial, final = 0.730449 2.05182e-13
  Final line search alpha, max atom move = 1 2.05182e-13
  Iterations, force evaluations = 3 6

MPI task timing breakdown:
Section |  min time  |  avg time  |  max time  |%varavg| %total
---------------------------------------------------------------
Pair    | 0.18573    | 0.18573    | 0.18573    |   0.0 | 99.82
Neigh   | 0          | 0          | 0          |   0.0 |  0.00
Comm    | 4.1485e-05 | 4.1485e-05 | 4.1485e-05 |   0.0 |  0.02
Output  | 7.081e-05  | 7.081e-05  | 7.081e-05  |   0.0 |  0.04
Modify  | 0          | 0          | 0          |   0.0 |  0.00
Other   |            | 0.0002298  |            |       |  0.12

Nlocal:    192 ave 192 max 192 min
Histogram: 1 0 0 0 0 0 0 0 0 0
Nghost:    634 ave 634 max 634 min
Histogram: 1 0 0 0 0 0 0 0 0 0
Neighs:    0 ave 0 max 0 min
Histogram: 1 0 0 0 0 0 0 0 0 0
FullNghs:  5376 ave 5376 max 5376 min
Histogram: 1 0 0 0 0 0 0 0 0 0

Total # of neighbors = 5376
Ave neighs/atom = 28
Neighbor list builds = 0
Dangerous builds = 0

variable tmp equal pxx
variable pxx0 equal ${tmp}
variable pxx0 equal 1.71512012999748e-11
variable tmp equal pyy
variable pyy0 equal ${tmp}
variable pyy0 equal -2.21060998445337e-11
variable tmp equal pzz
variable pzz0 equal ${tmp}
variable pzz0 equal 8.55705494917435e-11
variable tmp equal pyz
variable pyz0 equal ${tmp}
variable pyz0 equal 3.6111618964783e-10
variable tmp equal pxz
variable pxz0 equal ${tmp}
variable pxz0 equal 1.61600962313103e-10
variable tmp equal pxy
variable pxy0 equal ${tmp}
variable pxy0 equal -4.81369666516238e-10

variable tmp equal lx
variable lx0 equal ${tmp}
variable lx0 equal 10.8589290353888
variable tmp equal ly
variable ly0 equal ${tmp}
variable ly0 equal 16.2883935530833
variable tmp equal lz
variable lz0 equal ${tmp}
variable lz0 equal 21.7178580707777

# These formulas define the derivatives w.r.t. strain components
# Constants uses $, variables use v_
variable d1 equal -(v_pxx1-${pxx0})/(v_delta/v_len0)*${cfac}
variable d1 equal -(v_pxx1-1.71512012999748e-11)/(v_delta/v_len0)*${cfac}
variable d1 equal -(v_pxx1-1.71512012999748e-11)/(v_delta/v_len0)*0.0001
variable d2 equal -(v_pyy1-${pyy0})/(v_delta/v_len0)*${cfac}
variable d2 equal -(v_pyy1--2.21060998445337e-11)/(v_delta/v_len0)*${cfac}
variable d2 equal -(v_pyy1--2.21060998445337e-11)/(v_delta/v_len0)*0.0001
variable d3 equal -(v_pzz1-${pzz0})/(v_delta/v_len0)*${cfac}
variable d3 equal -(v_pzz1-8.55705494917435e-11)/(v_delta/v_len0)*${cfac}
variable d3 equal -(v_pzz1-8.55705494917435e-11)/(v_delta/v_len0)*0.0001
variable d4 equal -(v_pyz1-${pyz0})/(v_delta/v_len0)*${cfac}
variable d4 equal -(v_pyz1-3.6111618964783e-10)/(v_delta/v_len0)*${cfac}
variable d4 equal -(v_pyz1-3.6111618964783e-10)/(v_delta/v_len0)*0.0001
variable d5 equal -(v_pxz1-${pxz0})/(v_delta/v_len0)*${cfac}
variable d5 equal -(v_pxz1-1.61600962313103e-10)/(v_delta/v_len0)*${cfac}
variable d5 equal -(v_pxz1-1.61600962313103e-10)/(v_delta/v_len0)*0.0001
variable d6 equal -(v_pxy1-${pxy0})/(v_delta/v_len0)*${cfac}
variable d6 equal -(v_pxy1--4.81369666516238e-10)/(v_delta/v_len0)*${cfac}
variable d6 equal -(v_pxy1--4.81369666516238e-10)/(v_delta/v_len0)*0.0001

displace_atoms all random ${atomjiggle} ${atomjiggle} ${atomjiggle} 87287 units box
displace_atoms all random 1e-05 ${atomjiggle} ${atomjiggle} 87287 units box
displace_atoms all random 1e-05 1e-05 ${atomjiggle} 87287 units box
displace_atoms all random 1e-05 1e-05 1e-05 87287 units box

# Write restart
unfix 3
write_restart restart.equil

# uxx Perturbation

variable dir equal 1
include displace.mod
# NOTE: This script should not need to be
# modified. See in.elastic for more info.
#
# Find which reference length to use

if "${dir} == 1" then    "variable len0 equal ${lx0}"
variable len0 equal ${lx0}
variable len0 equal 10.8589290353888
if "${dir} == 2" then    "variable len0 equal ${ly0}"
if "${dir} == 3" then    "variable len0 equal ${lz0}"
if "${dir} == 4" then    "variable len0 equal ${lz0}"
if "${dir} == 5" then    "variable len0 equal ${lz0}"
if "${dir} == 6" then    "variable len0 equal ${ly0}"

# Reset box and simulation parameters

clear
box tilt large
read_restart restart.equil
  triclinic box = (0.000535482 0.000803223 0.00107096) to (10.8595 16.2892 21.7189) with tilt (0 0 0)
  1 by 1 by 1 MPI processor grid
  192 atoms
include potential.mod
# NOTE: This script can be modified for different pair styles
# See in.elastic for more info.

# Choose potential
pair_style		nn/angular2
pair_coeff		* * ../../TensorFlow/TrainingData/NNPotentialFinal 3.77118

# Setup neighbor style
neighbor 1.0 nsq
neigh_modify once no every 1 delay 0 check yes

# Setup minimization style
min_style	     cg
min_modify	     dmax ${dmax} line quadratic
min_modify	     dmax 0.01 line quadratic

# Setup output
thermo		1
thermo_style custom step temp pe press pxx pyy pzz pxy pxz pyz lx ly lz vol
thermo_modify norm no

# Negative deformation

variable delta equal -${up}*${len0}
variable delta equal -1e-06*${len0}
variable delta equal -1e-06*10.8589290353888
variable deltaxy equal -${up}*xy
variable deltaxy equal -1e-06*xy
variable deltaxz equal -${up}*xz
variable deltaxz equal -1e-06*xz
variable deltayz equal -${up}*yz
variable deltayz equal -1e-06*yz
if "${dir} == 1" then    "change_box all x delta 0 ${delta} xy delta ${deltaxy} xz delta ${deltaxz} remap units box"
change_box all x delta 0 ${delta} xy delta ${deltaxy} xz delta ${deltaxz} remap units box
change_box all x delta 0 -1.08589290353888e-05 xy delta ${deltaxy} xz delta ${deltaxz} remap units box
change_box all x delta 0 -1.08589290353888e-05 xy delta -0 xz delta ${deltaxz} remap units box
change_box all x delta 0 -1.08589290353888e-05 xy delta -0 xz delta -0 remap units box
  triclinic box = (0.000535482 0.000803223 0.00107096) to (10.8595 16.2892 21.7189) with tilt (0 0 0)
  triclinic box = (0.000535482 0.000803223 0.00107096) to (10.8595 16.2892 21.7189) with tilt (0 0 0)
  triclinic box = (0.000535482 0.000803223 0.00107096) to (10.8595 16.2892 21.7189) with tilt (0 0 0)
if "${dir} == 2" then    "change_box all y delta 0 ${delta} yz delta ${deltayz} remap units box"
if "${dir} == 3" then    "change_box all z delta 0 ${delta} remap units box"
if "${dir} == 4" then    "change_box all yz delta ${delta} remap units box"
if "${dir} == 5" then    "change_box all xz delta ${delta} remap units box"
if "${dir} == 6" then    "change_box all xy delta ${delta} remap units box"

# Relax atoms positions

minimize ${etol} ${ftol} ${maxiter} ${maxeval}
minimize 0 ${ftol} ${maxiter} ${maxeval}
minimize 0 1e-10 ${maxiter} ${maxeval}
minimize 0 1e-10 100 ${maxeval}
minimize 0 1e-10 100 1000
Neighbor list info ...
  update every 1 steps, delay 0 steps, check yes
  max neighbors/atom: 2000, page size: 100000
  master list distance cutoff = 4.77118
  ghost atom cutoff = 4.77118
  1 neighbor lists, perpetual/occasional/extra = 1 0 0
  (1) pair nn/angular2, perpetual
      pair build: full/nsq
      stencil: none
      bin: none
Memory usage per processor = 3.80664 Mbytes
Step Temp PotEng Press Pxx Pyy Pzz Pxy Pxz Pyz Lx Ly Lz Volume 
       3            0    -832.4206    1.0301262    1.4932879   0.79854898   0.79854161 -0.087536874  -0.28941972 -0.058018364    10.858918    16.288394    21.717858    3841.3317 
       4            0    -832.4206    1.0300478    1.4932072   0.79846834   0.79846786  0.022472804  0.074312334  0.014895358    10.858918    16.288394    21.717858    3841.3317 
       5            0    -832.4206    1.0300422    1.4932013   0.79846237   0.79846289 -0.019359789 -0.064024814 -0.012832066    10.858918    16.288394    21.717858    3841.3317 
       6            0    -832.4206    1.0300414    1.4932005   0.79846185   0.79846183   0.01969861  0.065147491  0.013057424    10.858918    16.288394    21.717858    3841.3317 
       7            0    -832.4206    1.0300412    1.4932002   0.79846173   0.79846174 -0.014517885 -0.048014589 -0.0096233405    10.858918    16.288394    21.717858    3841.3317 
       8            0    -832.4206    1.0300411       1.4932   0.79846162   0.79846163  0.011915122  0.039406992 0.0078981919    10.858918    16.288394    21.717858    3841.3317 
       9            0    -832.4206    1.0300411       1.4932   0.79846159   0.79846161 -0.0095940459 -0.031730602 -0.0063596175    10.858918    16.288394    21.717858    3841.3317 
      10            0    -832.4206     1.030041    1.4931999   0.79846159    0.7984616 0.0082990104   0.02744761 0.0055012002    10.858918    16.288394    21.717858    3841.3317 
      11            0    -832.4206     1.030041    1.4931999   0.79846158    0.7984616 -0.0073190298 -0.024206513 -0.0048515874    10.858918    16.288394    21.717858    3841.3317 
      12            0    -832.4206     1.030041    1.4931999   0.79846159    0.7984616 0.0059368401  0.019635173 0.0039353878    10.858918    16.288394    21.717858    3841.3317 
      13            0    -832.4206     1.030041    1.4931999   0.79846159    0.7984616 -0.004941468 -0.016343129 -0.0032755818    10.858918    16.288394    21.717858    3841.3317 
      14            0    -832.4206     1.030041    1.4931999   0.79846159    0.7984616 0.0033763871  0.011166893 0.0022381433    10.858918    16.288394    21.717858    3841.3317 
      15            0    -832.4206     1.030041    1.4931999   0.79846159    0.7984616 -0.002217723 -0.0073347898 -0.0014701018    10.858918    16.288394    21.717858    3841.3317 
      16            0    -832.4206     1.030041    1.4931999   0.79846159    0.7984616 0.0015231694 0.0050376734 0.0010097092    10.858918    16.288394    21.717858    3841.3317 
      17            0    -832.4206     1.030041    1.4931999   0.79846159    0.7984616 -0.00095846799 -0.0031700128 -0.00063539038    10.858918    16.288394    21.717858    3841.3317 
      18            0    -832.4206     1.030041    1.4931999    0.7984616    0.7984616 0.00062201872 0.0020572661 0.00041237261    10.858918    16.288394    21.717858    3841.3317 
      19            0    -832.4206     1.030041    1.4931999    0.7984616    0.7984616 -0.00029668727 -0.00098127662 -0.00019671212    10.858918    16.288394    21.717858    3841.3317 
      20            0    -832.4206     1.030041    1.4931999    0.7984616    0.7984616 0.00016436653 0.00054365216 0.00010900718    10.858918    16.288394    21.717858    3841.3317 
      21            0    -832.4206     1.030041    1.4931999    0.7984616    0.7984616 -8.5743028e-05 -0.00028361526 -5.6887998e-05    10.858918    16.288394    21.717858    3841.3317 
      22            0    -832.4206     1.030041    1.4931999    0.7984616    0.7984616 4.4482663e-05 0.00014715641 2.9542562e-05    10.858918    16.288394    21.717858    3841.3317 
      23            0    -832.4206     1.030041    1.4931999    0.7984616    0.7984616 -3.5676707e-05 -0.00011805818 -2.3746724e-05    10.858918    16.288394    21.717858    3841.3317 
      24            0    -832.4206     1.030041    1.4931999    0.7984616    0.7984616 1.5695871e-05 5.1964904e-05 1.0487197e-05    10.858918    16.288394    21.717858    3841.3317 
      25            0    -832.4206     1.030041    1.4931999    0.7984616    0.7984616 -1.3168685e-05 -4.3648356e-05 -8.8771102e-06    10.858918    16.288394    21.717858    3841.3317 
      26            0    -832.4206     1.030041    1.4931999    0.7984616    0.7984616 7.2527668e-06 2.4088627e-05 4.9650751e-06    10.858918    16.288394    21.717858    3841.3317 
      27            0    -832.4206     1.030041    1.4931999    0.7984616    0.7984616 -2.9647159e-06 -9.8795515e-06 -2.0806905e-06    10.858918    16.288394    21.717858    3841.3317 
      28            0    -832.4206     1.030041    1.4931999    0.7984616    0.7984616 1.9971638e-06 6.7040666e-06 1.4782462e-06    10.858918    16.288394    21.717858    3841.3317 
      29            0    -832.4206     1.030041    1.4931999    0.7984616    0.7984616 -7.7589976e-07 -2.6377216e-06 -6.2693923e-07    10.858918    16.288394    21.717858    3841.3317 
      30            0    -832.4206     1.030041    1.4931999    0.7984616    0.7984616 4.0451314e-07 1.4072931e-06 3.7778496e-07    10.858918    16.288394    21.717858    3841.3317 
      31            0    -832.4206     1.030041    1.4931999    0.7984616    0.7984616 -2.3464875e-07 -8.4330636e-07 -2.6200562e-07    10.858918    16.288394    21.717858    3841.3317 
      32            0    -832.4206     1.030041    1.4931999    0.7984616    0.7984616 1.4693395e-07 5.5084978e-07 2.0025993e-07    10.858918    16.288394    21.717858    3841.3317 
      33            0    -832.4206     1.030041    1.4931999    0.7984616    0.7984616 -8.8621929e-08 -3.4574275e-07 -1.4217726e-07    10.858918    16.288394    21.717858    3841.3317 
      34            0    -832.4206     1.030041    1.4931999    0.7984616    0.7984616 6.5508084e-08 2.675391e-07 1.240902e-07    10.858918    16.288394    21.717858    3841.3317 
      35            0    -832.4206     1.030041    1.4931999    0.7984616    0.7984616 -7.9258824e-08 -3.3049139e-07 -1.6058483e-07    10.858918    16.288394    21.717858    3841.3317 
      36            0    -832.4206     1.030041    1.4931999    0.7984616    0.7984616 7.2144284e-08 3.0362241e-07  1.50511e-07    10.858918    16.288394    21.717858    3841.3317 
      37            0    -832.4206     1.030041    1.4931999    0.7984616    0.7984616 -9.0101233e-08 -3.8048845e-07 -1.9021377e-07    10.858918    16.288394    21.717858    3841.3317 
      38            0    -832.4206     1.030041    1.4931999    0.7984616    0.7984616 1.4834622e-07 6.2666715e-07 3.1377795e-07    10.858918    16.288394    21.717858    3841.3317 
      39            0    -832.4206     1.030041    1.4931999    0.7984616    0.7984616 -1.1364977e-07 -4.8016577e-07 -2.4057978e-07    10.858918    16.288394    21.717858    3841.3317 
      40            0    -832.4206     1.030041    1.4931999    0.7984616    0.7984616 8.766944e-08 3.7096644e-07 1.8593886e-07    10.858918    16.288394    21.717858    3841.3317 
      41            0    -832.4206     1.030041    1.4931999    0.7984616    0.7984616 -1.5085871e-07 -6.385313e-07 -3.2012209e-07    10.858918    16.288394    21.717858    3841.3317 
      42            0    -832.4206     1.030041    1.4931999    0.7984616    0.7984616 1.1268311e-07 4.7700759e-07 2.3908972e-07    10.858918    16.288394    21.717858    3841.3317 
      43            0    -832.4206     1.030041    1.4931999    0.7984616    0.7984616 -1.3122495e-07 -5.5583842e-07 -2.7854539e-07    10.858918    16.288394    21.717858    3841.3317 
      44            0    -832.4206     1.030041    1.4931999    0.7984616    0.7984616 1.6909406e-07 7.1690524e-07 3.5923088e-07    10.858918    16.288394    21.717858    3841.3317 
      45            0    -832.4206     1.030041    1.4931999    0.7984616    0.7984616 -1.9230151e-07 -8.1672798e-07 -4.0937181e-07    10.858918    16.288394    21.717858    3841.3317 
      46            0    -832.4206     1.030041    1.4931999    0.7984616    0.7984616 1.4722669e-07 6.2588745e-07 3.1371017e-07    10.858918    16.288394    21.717858    3841.3317 
      47            0    -832.4206     1.030041    1.4931999    0.7984616    0.7984616 -1.8534697e-07 -7.8831767e-07 -3.9510882e-07    10.858918    16.288394    21.717858    3841.3317 
      48            0    -832.4206     1.030041    1.4931999    0.7984616    0.7984616 1.1614196e-07 4.9385357e-07 2.473856e-07    10.858918    16.288394    21.717858    3841.3317 
      49            0    -832.4206     1.030041    1.4931999    0.7984616    0.7984616 -3.8740176e-08 -1.643858e-07 -8.2210318e-08    10.858918    16.288394    21.717858    3841.3317 
      50            0    -832.4206     1.030041    1.4931999    0.7984616    0.7984616 2.2620492e-08 9.550899e-08 4.7590463e-08    10.858918    16.288394    21.717858    3841.3317 
      51            0    -832.4206     1.030041    1.4931999    0.7984616    0.7984616 -1.0055449e-08 -4.1871422e-08 -2.0704007e-08    10.858918    16.288394    21.717858    3841.3317 
      52            0    -832.4206     1.030041    1.4931999    0.7984616    0.7984616 3.386143e-09 1.3291399e-08 6.4693852e-09    10.858918    16.288394    21.717858    3841.3317 
Loop time of 1.93855 on 1 procs for 49 steps with 192 atoms

99.9% CPU use with 1 MPI tasks x no OpenMP threads

Minimization stats:
  Stopping criterion = force tolerance
  Energy initial, next-to-last, final = 
         -832.42060258     -832.420602747     -832.420602747
  Force two-norm initial, final = 0.00295014 6.7352e-11
  Force max component initial, final = 0.000392239 1.06457e-11
  Final line search alpha, max atom move = 1 1.06457e-11
  Iterations, force evaluations = 49 98

MPI task timing breakdown:
Section |  min time  |  avg time  |  max time  |%varavg| %total
---------------------------------------------------------------
Pair    | 1.9349     | 1.9349     | 1.9349     |   0.0 | 99.81
Neigh   | 0          | 0          | 0          |   0.0 |  0.00
Comm    | 0.00066519 | 0.00066519 | 0.00066519 |   0.0 |  0.03
Output  | 0.0017524  | 0.0017524  | 0.0017524  |   0.0 |  0.09
Modify  | 0          | 0          | 0          |   0.0 |  0.00
Other   |            | 0.001181   |            |       |  0.06

Nlocal:    192 ave 192 max 192 min
Histogram: 1 0 0 0 0 0 0 0 0 0
Nghost:    634 ave 634 max 634 min
Histogram: 1 0 0 0 0 0 0 0 0 0
Neighs:    0 ave 0 max 0 min
Histogram: 1 0 0 0 0 0 0 0 0 0
FullNghs:  5376 ave 5376 max 5376 min
Histogram: 1 0 0 0 0 0 0 0 0 0

Total # of neighbors = 5376
Ave neighs/atom = 28
Neighbor list builds = 0
Dangerous builds = 0

# Obtain new stress tensor

variable tmp equal pxx
variable pxx1 equal ${tmp}
variable pxx1 equal 1.49319990416243
variable tmp equal pyy
variable pyy1 equal ${tmp}
variable pyy1 equal 0.798461596553029
variable tmp equal pzz
variable pzz1 equal ${tmp}
variable pzz1 equal 0.798461596708584
variable tmp equal pxy
variable pxy1 equal ${tmp}
variable pxy1 equal 3.38614303521823e-09
variable tmp equal pxz
variable pxz1 equal ${tmp}
variable pxz1 equal 1.3291399422849e-08
variable tmp equal pyz
variable pyz1 equal ${tmp}
variable pyz1 equal 6.46938521509061e-09

# Compute elastic constant from pressure tensor

variable C1neg equal ${d1}
variable C1neg equal 149.319990414528
variable C2neg equal ${d2}
variable C2neg equal 79.8461596575135
variable C3neg equal ${d3}
variable C3neg equal 79.8461596623013
variable C4neg equal ${d4}
variable C4neg equal 6.10826902544278e-07
variable C5neg equal ${d5}
variable C5neg equal 1.31297984605359e-06
variable C6neg equal ${d6}
variable C6neg equal 3.86751270173447e-07

# Reset box and simulation parameters

clear
box tilt large
read_restart restart.equil
  triclinic box = (0.000535482 0.000803223 0.00107096) to (10.8595 16.2892 21.7189) with tilt (0 0 0)
  1 by 1 by 1 MPI processor grid
  192 atoms
include potential.mod
# NOTE: This script can be modified for different pair styles
# See in.elastic for more info.

# Choose potential
pair_style		nn/angular2
pair_coeff		* * ../../TensorFlow/TrainingData/NNPotentialFinal 3.77118

# Setup neighbor style
neighbor 1.0 nsq
neigh_modify once no every 1 delay 0 check yes

# Setup minimization style
min_style	     cg
min_modify	     dmax ${dmax} line quadratic
min_modify	     dmax 0.01 line quadratic

# Setup output
thermo		1
thermo_style custom step temp pe press pxx pyy pzz pxy pxz pyz lx ly lz vol
thermo_modify norm no

# Positive deformation

variable delta equal ${up}*${len0}
variable delta equal 1e-06*${len0}
variable delta equal 1e-06*10.8589290353888
variable deltaxy equal ${up}*xy
variable deltaxy equal 1e-06*xy
variable deltaxz equal ${up}*xz
variable deltaxz equal 1e-06*xz
variable deltayz equal ${up}*yz
variable deltayz equal 1e-06*yz
if "${dir} == 1" then    "change_box all x delta 0 ${delta} xy delta ${deltaxy} xz delta ${deltaxz} remap units box"
change_box all x delta 0 ${delta} xy delta ${deltaxy} xz delta ${deltaxz} remap units box
change_box all x delta 0 1.08589290353888e-05 xy delta ${deltaxy} xz delta ${deltaxz} remap units box
change_box all x delta 0 1.08589290353888e-05 xy delta 0 xz delta ${deltaxz} remap units box
change_box all x delta 0 1.08589290353888e-05 xy delta 0 xz delta 0 remap units box
  triclinic box = (0.000535482 0.000803223 0.00107096) to (10.8595 16.2892 21.7189) with tilt (0 0 0)
  triclinic box = (0.000535482 0.000803223 0.00107096) to (10.8595 16.2892 21.7189) with tilt (0 0 0)
  triclinic box = (0.000535482 0.000803223 0.00107096) to (10.8595 16.2892 21.7189) with tilt (0 0 0)
if "${dir} == 2" then    "change_box all y delta 0 ${delta} yz delta ${deltayz} remap units box"
if "${dir} == 3" then    "change_box all z delta 0 ${delta} remap units box"
if "${dir} == 4" then    "change_box all yz delta ${delta} remap units box"
if "${dir} == 5" then    "change_box all xz delta ${delta} remap units box"
if "${dir} == 6" then    "change_box all xy delta ${delta} remap units box"

# Relax atoms positions

minimize ${etol} ${ftol} ${maxiter} ${maxeval}
minimize 0 ${ftol} ${maxiter} ${maxeval}
minimize 0 1e-10 ${maxiter} ${maxeval}
minimize 0 1e-10 100 ${maxeval}
minimize 0 1e-10 100 1000
Neighbor list info ...
  update every 1 steps, delay 0 steps, check yes
  max neighbors/atom: 2000, page size: 100000
  master list distance cutoff = 4.77118
  ghost atom cutoff = 4.77118
  1 neighbor lists, perpetual/occasional/extra = 1 0 0
  (1) pair nn/angular2, perpetual
      pair build: full/nsq
      stencil: none
      bin: none
Memory usage per processor = 3.80664 Mbytes
Step Temp PotEng Press Pxx Pyy Pzz Pxy Pxz Pyz Lx Ly Lz Volume 
       3            0    -832.4206   -1.0299509   -1.4931064   -0.7983695  -0.79837687 -0.087536402  -0.28941816 -0.058018112     10.85894    16.288394    21.717858    3841.3393 
       4            0    -832.4206   -1.0300293   -1.4931871  -0.79845014  -0.79845062  0.022472728  0.074312085  0.014895254     10.85894    16.288394    21.717858    3841.3393 
       5            0    -832.4206   -1.0300349   -1.4931931  -0.79845611  -0.79845559 -0.019359765 -0.064024736 -0.012831948     10.85894    16.288394    21.717858    3841.3393 
       6            0    -832.4206   -1.0300357   -1.4931939  -0.79845663  -0.79845665  0.019698603   0.06514747  0.013057266     10.85894    16.288394    21.717858    3841.3393 
       7            0    -832.4206   -1.0300359   -1.4931942  -0.79845675  -0.79845674 -0.014517879 -0.048014572 -0.0096231692     10.85894    16.288394    21.717858    3841.3393 
       8            0    -832.4206    -1.030036   -1.4931943  -0.79845686  -0.79845684  0.011915149  0.039407084 0.0078980134     10.85894    16.288394    21.717858    3841.3393 
       9            0    -832.4206    -1.030036   -1.4931944  -0.79845689  -0.79845687 -0.0095940767 -0.031730705 -0.0063594343     10.85894    16.288394    21.717858    3841.3393 
      10            0    -832.4206   -1.0300361   -1.4931944  -0.79845689  -0.79845687 0.0082990564  0.027447763 0.0055010032     10.85894    16.288394    21.717858    3841.3393 
      11            0    -832.4206   -1.0300361   -1.4931944   -0.7984569  -0.79845688 -0.0073190927 -0.024206723 -0.0048513841     10.85894    16.288394    21.717858    3841.3393 
      12            0    -832.4206   -1.0300361   -1.4931944  -0.79845689  -0.79845688  0.005936868  0.019635266 0.0039351727     10.85894    16.288394    21.717858    3841.3393 
      13            0    -832.4206   -1.0300361   -1.4931944  -0.79845689  -0.79845688 -0.0049414733 -0.016343147 -0.0032753516     10.85894    16.288394    21.717858    3841.3393 
      14            0    -832.4206   -1.0300361   -1.4931944  -0.79845689  -0.79845688 0.0033763612  0.011166807 0.0022379284     10.85894    16.288394    21.717858    3841.3393 
      15            0    -832.4206   -1.0300361   -1.4931944  -0.79845689  -0.79845688 -0.0022176902 -0.0073346806 -0.0014698977     10.85894    16.288394    21.717858    3841.3393 
      16            0    -832.4206   -1.0300361   -1.4931944  -0.79845689  -0.79845688 0.0015231293 0.0050375405 0.0010095083     10.85894    16.288394    21.717858    3841.3393 
      17            0    -832.4206   -1.0300361   -1.4931945  -0.79845688  -0.79845688 -0.00095843873 -0.0031699161 -0.00063519908     10.85894    16.288394    21.717858    3841.3393 
      18            0    -832.4206   -1.0300361   -1.4931945  -0.79845688  -0.79845688 0.00062199926 0.0020572028 0.00041218959     10.85894    16.288394    21.717858    3841.3393 
      19            0    -832.4206   -1.0300361   -1.4931945  -0.79845688  -0.79845688 -0.00029667817 -0.0009812486 -0.00019656849     10.85894    16.288394    21.717858    3841.3393 
      20            0    -832.4206   -1.0300361   -1.4931945  -0.79845688  -0.79845688 0.00016436504 0.00054365029 0.00010885759     10.85894    16.288394    21.717858    3841.3393 
      21            0    -832.4206   -1.0300361   -1.4931945  -0.79845688  -0.79845688 -8.5745017e-05 -0.00028362513 -5.6748887e-05     10.85894    16.288394    21.717858    3841.3393 
      22            0    -832.4206   -1.0300361   -1.4931945  -0.79845688  -0.79845688 4.4487028e-05 0.00014717477 2.9394567e-05     10.85894    16.288394    21.717858    3841.3393 
      23            0    -832.4206   -1.0300361   -1.4931945  -0.79845688  -0.79845688 -3.5686401e-05 -0.00011809821 -2.3492954e-05     10.85894    16.288394    21.717858    3841.3393 
      24            0    -832.4206   -1.0300361   -1.4931945  -0.79845688  -0.79845688 1.5704712e-05 5.2001235e-05 1.0273168e-05     10.85894    16.288394    21.717858    3841.3393 
      25            0    -832.4206   -1.0300361   -1.4931945  -0.79845688  -0.79845688 -1.3185371e-05 -4.3716402e-05 -8.4963326e-06     10.85894    16.288394    21.717858    3841.3393 
      26            0    -832.4206   -1.0300361   -1.4931945  -0.79845688  -0.79845688 7.2710208e-06 2.4162593e-05 4.5607087e-06     10.85894    16.288394    21.717858    3841.3393 
      27            0    -832.4206   -1.0300361   -1.4931945  -0.79845688  -0.79845688 -2.9781727e-06 -9.9343629e-06  -1.7844e-06     10.85894    16.288394    21.717858    3841.3393 
      28            0    -832.4206   -1.0300361   -1.4931945  -0.79845688  -0.79845688 2.015077e-06 6.7780914e-06 1.081955e-06     10.85894    16.288394    21.717858    3841.3393 
      29            0    -832.4206   -1.0300361   -1.4931945  -0.79845688  -0.79845688 -7.8890326e-07 -2.6919455e-06 -3.3773964e-07     10.85894    16.288394    21.717858    3841.3393 
      30            0    -832.4206   -1.0300361   -1.4931945  -0.79845688  -0.79845688 4.1713416e-07 1.4601532e-06 9.6157544e-08     10.85894    16.288394    21.717858    3841.3393 
      31            0    -832.4206   -1.0300361   -1.4931945  -0.79845688  -0.79845688 -2.4687544e-07 -8.9456158e-07 1.1623481e-08     10.85894    16.288394    21.717858    3841.3393 
      32            0    -832.4206   -1.0300361   -1.4931945  -0.79845688  -0.79845688 1.587341e-07 6.004446e-07 -6.41644e-08     10.85894    16.288394    21.717858    3841.3393 
      33            0    -832.4206   -1.0300361   -1.4931945  -0.79845688  -0.79845688 -9.8208048e-08 -3.8595308e-07 7.2302394e-08     10.85894    16.288394    21.717858    3841.3393 
      34            0    -832.4206   -1.0300361   -1.4931945  -0.79845688  -0.79845688 7.4797389e-08 3.0663601e-07 -8.3417074e-08     10.85894    16.288394    21.717858    3841.3393 
      35            0    -832.4206   -1.0300361   -1.4931945  -0.79845688  -0.79845688 -9.1681415e-08 -3.829626e-07 1.1721158e-07     10.85894    16.288394    21.717858    3841.3393 
      36            0    -832.4206   -1.0300361   -1.4931945  -0.79845688  -0.79845688 8.3965199e-08 3.5344797e-07 -1.1334604e-07     10.85894    16.288394    21.717858    3841.3393 
      37            0    -832.4206   -1.0300361   -1.4931945  -0.79845688  -0.79845688 -1.0505247e-07 -4.4389763e-07 1.4489342e-07     10.85894    16.288394    21.717858    3841.3393 
      38            0    -832.4206   -1.0300361   -1.4931945  -0.79845688  -0.79845688 1.7292842e-07 7.3132219e-07 -2.39665e-07     10.85894    16.288394    21.717858    3841.3393 
      39            0    -832.4206   -1.0300361   -1.4931945  -0.79845688  -0.79845688 -1.3250345e-07 -5.6044406e-07 1.8388301e-07     10.85894    16.288394    21.717858    3841.3393 
      40            0    -832.4206   -1.0300361   -1.4931945  -0.79845688  -0.79845688 1.0218342e-07 4.3269917e-07 -1.4217697e-07     10.85894    16.288394    21.717858    3841.3393 
      41            0    -832.4206   -1.0300361   -1.4931945  -0.79845688  -0.79845688 -1.7568854e-07 -7.4406427e-07 2.444433e-07     10.85894    16.288394    21.717858    3841.3393 
      42            0    -832.4206   -1.0300361   -1.4931945  -0.79845688  -0.79845688 1.3100344e-07 5.5480446e-07 -1.8225606e-07     10.85894    16.288394    21.717858    3841.3393 
      43            0    -832.4206   -1.0300361   -1.4931945  -0.79845688  -0.79845688 -1.5228025e-07 -6.4470155e-07 2.1188604e-07     10.85894    16.288394    21.717858    3841.3393 
      44            0    -832.4206   -1.0300361   -1.4931945  -0.79845688  -0.79845688 1.9509961e-07 8.2576172e-07 -2.7128798e-07     10.85894    16.288394    21.717858    3841.3393 
      45            0    -832.4206   -1.0300361   -1.4931945  -0.79845688  -0.79845688 -2.1997657e-07 -9.3090005e-07 3.0576612e-07     10.85894    16.288394    21.717858    3841.3393 
      46            0    -832.4206   -1.0300361   -1.4931945  -0.79845688  -0.79845688 1.6388109e-07 6.9356451e-07 -2.2772704e-07     10.85894    16.288394    21.717858    3841.3393 
      47            0    -832.4206   -1.0300361   -1.4931945  -0.79845688  -0.79845688 -1.9791367e-07 -8.3650502e-07 2.7466599e-07     10.85894    16.288394    21.717858    3841.3393 
      48            0    -832.4206   -1.0300361   -1.4931945  -0.79845688  -0.79845688 1.1869128e-07 5.0086659e-07 -1.6447909e-07     10.85894    16.288394    21.717858    3841.3393 
      49            0    -832.4206   -1.0300361   -1.4931945  -0.79845688  -0.79845688 -3.86289e-08 -1.621864e-07 5.3180544e-08     10.85894    16.288394    21.717858    3841.3393 
      50            0    -832.4206   -1.0300361   -1.4931945  -0.79845688  -0.79845688 2.235447e-08 9.3157693e-08 -3.0556443e-08     10.85894    16.288394    21.717858    3841.3393 
      51            0    -832.4206   -1.0300361   -1.4931945  -0.79845688  -0.79845688 -9.8386093e-09 -4.0595176e-08 1.3333994e-08     10.85894    16.288394    21.717858    3841.3393 
      52            0    -832.4206   -1.0300361   -1.4931945  -0.79845688  -0.79845688 3.1967665e-09 1.3034926e-08 -4.3871839e-09     10.85894    16.288394    21.717858    3841.3393 
Loop time of 1.90959 on 1 procs for 49 steps with 192 atoms

100.1% CPU use with 1 MPI tasks x no OpenMP threads

Minimization stats:
  Stopping criterion = force tolerance
  Energy initial, next-to-last, final = 
         -832.42060258     -832.420602747     -832.420602747
  Force two-norm initial, final = 0.00295014 6.73313e-11
  Force max component initial, final = 0.000392238 1.06246e-11
  Final line search alpha, max atom move = 1 1.06246e-11
  Iterations, force evaluations = 49 98

MPI task timing breakdown:
Section |  min time  |  avg time  |  max time  |%varavg| %total
---------------------------------------------------------------
Pair    | 1.9059     | 1.9059     | 1.9059     |   0.0 | 99.80
Neigh   | 0          | 0          | 0          |   0.0 |  0.00
Comm    | 0.0006299  | 0.0006299  | 0.0006299  |   0.0 |  0.03
Output  | 0.0018871  | 0.0018871  | 0.0018871  |   0.0 |  0.10
Modify  | 0          | 0          | 0          |   0.0 |  0.00
Other   |            | 0.001215   |            |       |  0.06

Nlocal:    192 ave 192 max 192 min
Histogram: 1 0 0 0 0 0 0 0 0 0
Nghost:    634 ave 634 max 634 min
Histogram: 1 0 0 0 0 0 0 0 0 0
Neighs:    0 ave 0 max 0 min
Histogram: 1 0 0 0 0 0 0 0 0 0
FullNghs:  5376 ave 5376 max 5376 min
Histogram: 1 0 0 0 0 0 0 0 0 0

Total # of neighbors = 5376
Ave neighs/atom = 28
Neighbor list builds = 0
Dangerous builds = 0

# Obtain new stress tensor

variable tmp equal pe
variable e1 equal ${tmp}
variable e1 equal -832.420602746934
variable tmp equal press
variable p1 equal ${tmp}
variable p1 equal -1.03003607233242
variable tmp equal pxx
variable pxx1 equal ${tmp}
variable pxx1 equal -1.4931944519497
variable tmp equal pyy
variable pyy1 equal ${tmp}
variable pyy1 equal -0.798456882609049
variable tmp equal pzz
variable pzz1 equal ${tmp}
variable pzz1 equal -0.798456882438521
variable tmp equal pxy
variable pxy1 equal ${tmp}
variable pxy1 equal 3.19676647005332e-09
variable tmp equal pxz
variable pxz1 equal ${tmp}
variable pxz1 equal 1.30349263728851e-08
variable tmp equal pyz
variable pyz1 equal ${tmp}
variable pyz1 equal -4.38718392166442e-09

# Compute elastic constant from pressure tensor

variable C1pos equal ${d1}
variable C1pos equal 149.319445196685
variable C2pos equal ${d2}
variable C2pos equal 79.8456882586943
variable C3pos equal ${d3}
variable C3pos equal 79.8456882524091
variable C4pos equal ${d4}
variable C4pos equal 4.74830011131225e-07
variable C5pos equal ${d5}
variable C5pos equal -1.2873325410572e-06
variable C6pos equal ${d6}
variable C6pos equal -3.67813613656956e-07

# Combine positive and negative

variable C1${dir} equal 0.5*(${C1neg}+${C1pos})
variable C11 equal 0.5*(${C1neg}+${C1pos})
variable C11 equal 0.5*(149.319990414528+${C1pos})
variable C11 equal 0.5*(149.319990414528+149.319445196685)
variable C2${dir} equal 0.5*(${C2neg}+${C2pos})
variable C21 equal 0.5*(${C2neg}+${C2pos})
variable C21 equal 0.5*(79.8461596575135+${C2pos})
variable C21 equal 0.5*(79.8461596575135+79.8456882586943)
variable C3${dir} equal 0.5*(${C3neg}+${C3pos})
variable C31 equal 0.5*(${C3neg}+${C3pos})
variable C31 equal 0.5*(79.8461596623013+${C3pos})
variable C31 equal 0.5*(79.8461596623013+79.8456882524091)
variable C4${dir} equal 0.5*(${C4neg}+${C4pos})
variable C41 equal 0.5*(${C4neg}+${C4pos})
variable C41 equal 0.5*(6.10826902544278e-07+${C4pos})
variable C41 equal 0.5*(6.10826902544278e-07+4.74830011131225e-07)
variable C5${dir} equal 0.5*(${C5neg}+${C5pos})
variable C51 equal 0.5*(${C5neg}+${C5pos})
variable C51 equal 0.5*(1.31297984605359e-06+${C5pos})
variable C51 equal 0.5*(1.31297984605359e-06+-1.2873325410572e-06)
variable C6${dir} equal 0.5*(${C6neg}+${C6pos})
variable C61 equal 0.5*(${C6neg}+${C6pos})
variable C61 equal 0.5*(3.86751270173447e-07+${C6pos})
variable C61 equal 0.5*(3.86751270173447e-07+-3.67813613656956e-07)

# Delete dir to make sure it is not reused

variable dir delete

# uyy Perturbation

variable dir equal 2
include displace.mod
# NOTE: This script should not need to be
# modified. See in.elastic for more info.
#
# Find which reference length to use

if "${dir} == 1" then    "variable len0 equal ${lx0}"
if "${dir} == 2" then    "variable len0 equal ${ly0}"
variable len0 equal ${ly0}
variable len0 equal 16.2883935530833
if "${dir} == 3" then    "variable len0 equal ${lz0}"
if "${dir} == 4" then    "variable len0 equal ${lz0}"
if "${dir} == 5" then    "variable len0 equal ${lz0}"
if "${dir} == 6" then    "variable len0 equal ${ly0}"

# Reset box and simulation parameters

clear
box tilt large
read_restart restart.equil
  triclinic box = (0.000535482 0.000803223 0.00107096) to (10.8595 16.2892 21.7189) with tilt (0 0 0)
  1 by 1 by 1 MPI processor grid
  192 atoms
include potential.mod
# NOTE: This script can be modified for different pair styles
# See in.elastic for more info.

# Choose potential
pair_style		nn/angular2
pair_coeff		* * ../../TensorFlow/TrainingData/NNPotentialFinal 3.77118

# Setup neighbor style
neighbor 1.0 nsq
neigh_modify once no every 1 delay 0 check yes

# Setup minimization style
min_style	     cg
min_modify	     dmax ${dmax} line quadratic
min_modify	     dmax 0.01 line quadratic

# Setup output
thermo		1
thermo_style custom step temp pe press pxx pyy pzz pxy pxz pyz lx ly lz vol
thermo_modify norm no

# Negative deformation

variable delta equal -${up}*${len0}
variable delta equal -1e-06*${len0}
variable delta equal -1e-06*16.2883935530833
variable deltaxy equal -${up}*xy
variable deltaxy equal -1e-06*xy
variable deltaxz equal -${up}*xz
variable deltaxz equal -1e-06*xz
variable deltayz equal -${up}*yz
variable deltayz equal -1e-06*yz
if "${dir} == 1" then    "change_box all x delta 0 ${delta} xy delta ${deltaxy} xz delta ${deltaxz} remap units box"
if "${dir} == 2" then    "change_box all y delta 0 ${delta} yz delta ${deltayz} remap units box"
change_box all y delta 0 ${delta} yz delta ${deltayz} remap units box
change_box all y delta 0 -1.62883935530833e-05 yz delta ${deltayz} remap units box
change_box all y delta 0 -1.62883935530833e-05 yz delta -0 remap units box
  triclinic box = (0.000535482 0.000803223 0.00107096) to (10.8595 16.2892 21.7189) with tilt (0 0 0)
  triclinic box = (0.000535482 0.000803223 0.00107096) to (10.8595 16.2892 21.7189) with tilt (0 0 0)
if "${dir} == 3" then    "change_box all z delta 0 ${delta} remap units box"
if "${dir} == 4" then    "change_box all yz delta ${delta} remap units box"
if "${dir} == 5" then    "change_box all xz delta ${delta} remap units box"
if "${dir} == 6" then    "change_box all xy delta ${delta} remap units box"

# Relax atoms positions

minimize ${etol} ${ftol} ${maxiter} ${maxeval}
minimize 0 ${ftol} ${maxiter} ${maxeval}
minimize 0 1e-10 ${maxiter} ${maxeval}
minimize 0 1e-10 100 ${maxeval}
minimize 0 1e-10 100 1000
Neighbor list info ...
  update every 1 steps, delay 0 steps, check yes
  max neighbors/atom: 2000, page size: 100000
  master list distance cutoff = 4.77118
  ghost atom cutoff = 4.77118
  1 neighbor lists, perpetual/occasional/extra = 1 0 0
  (1) pair nn/angular2, perpetual
      pair build: full/nsq
      stencil: none
      bin: none
Memory usage per processor = 3.80664 Mbytes
Step Temp PotEng Press Pxx Pyy Pzz Pxy Pxz Pyz Lx Ly Lz Volume 
       3            0    -832.4206    1.0301262   0.79854964    1.4932873   0.79854161 -0.087536874  -0.28941957 -0.058018394    10.858929    16.288377    21.717858    3841.3317 
       4            0    -832.4206    1.0300478   0.79846894    1.4932066   0.79846786  0.022472804  0.074312469  0.014895331    10.858929    16.288377    21.717858    3841.3317 
       5            0    -832.4206    1.0300422   0.79846296    1.4932007   0.79846289 -0.019359791 -0.064025076 -0.012832016    10.858929    16.288377    21.717858    3841.3317 
       6            0    -832.4206    1.0300414   0.79846218    1.4932002   0.79846183  0.019698613  0.065147886   0.01305735    10.858929    16.288377    21.717858    3841.3317 
       7            0    -832.4206    1.0300412   0.79846185       1.4932   0.79846174 -0.014517888 -0.048015019 -0.0096232595    10.858929    16.288377    21.717858    3841.3317 
       8            0    -832.4206    1.0300411   0.79846171    1.4931999   0.79846163  0.011915124  0.039407491 0.0078980955    10.858929    16.288377    21.717858    3841.3317 
       9            0    -832.4206    1.0300411   0.79846166    1.4931999   0.79846161 -0.0095940334  -0.03173107 -0.006359508    10.858929    16.288377    21.717858    3841.3317 
      10            0    -832.4206     1.030041   0.79846163    1.4931999    0.7984616 0.0082989852  0.027448097 0.0055010704    10.858929    16.288377    21.717858    3841.3317 
      11            0    -832.4206     1.030041   0.79846162    1.4931999    0.7984616 -0.0073189846 -0.024206978 -0.0048514356    10.858929    16.288377    21.717858    3841.3317 
      12            0    -832.4206     1.030041   0.79846161    1.4931999    0.7984616 0.0059367442  0.019635441  0.003935208    10.858929    16.288377    21.717858    3841.3317 
      13            0    -832.4206     1.030041    0.7984616    1.4931999    0.7984616 -0.0049413303  -0.01634326 -0.0032753743    10.858929    16.288377    21.717858    3841.3317 
      14            0    -832.4206     1.030041    0.7984616    1.4931999    0.7984616 0.0033762331   0.01116688 0.0022379429    10.858929    16.288377    21.717858    3841.3317 
      15            0    -832.4206     1.030041    0.7984616    1.4931999    0.7984616 -0.0022175681 -0.0073347353 -0.0014699084    10.858929    16.288377    21.717858    3841.3317 
      16            0    -832.4206     1.030041    0.7984616    1.4931999    0.7984616  0.001523019 0.0050376145 0.0010095228    10.858929    16.288377    21.717858    3841.3317 
      17            0    -832.4206     1.030041    0.7984616    1.4931999    0.7984616 -0.00095832566 -0.0031699754 -0.00063521052    10.858929    16.288377    21.717858    3841.3317 
      18            0    -832.4206     1.030041    0.7984616    1.4931999    0.7984616 0.00062188657 0.0020572583 0.00041220035    10.858929    16.288377    21.717858    3841.3317 
      19            0    -832.4206     1.030041    0.7984616    1.4931999    0.7984616 -0.00029658588 -0.00098128919 -0.00019657647    10.858929    16.288377    21.717858    3841.3317 
      20            0    -832.4206     1.030041    0.7984616    1.4931999    0.7984616 0.0001642626 0.00054368421 0.00010886411    10.858929    16.288377    21.717858    3841.3317 
      21            0    -832.4206     1.030041    0.7984616    1.4931999    0.7984616 -8.5647795e-05 -0.0002836554 -5.6754764e-05    10.858929    16.288377    21.717858    3841.3317 
      22            0    -832.4206     1.030041    0.7984616    1.4931999    0.7984616 4.4382194e-05 0.00014720559 2.940066e-05    10.858929    16.288377    21.717858    3841.3317 
      23            0    -832.4206     1.030041    0.7984616    1.4931999    0.7984616 -3.5505336e-05 -0.00011814987 -2.3503234e-05    10.858929    16.288377    21.717858    3841.3317 
      24            0    -832.4206     1.030041    0.7984616    1.4931999    0.7984616 1.5551619e-05 5.2045038e-05 1.0281811e-05    10.858929    16.288377    21.717858    3841.3317 
      25            0    -832.4206     1.030041    0.7984616    1.4931999    0.7984616 -1.2912698e-05 -4.3793904e-05 -8.511748e-06    10.858929    16.288377    21.717858    3841.3317 
      26            0    -832.4206     1.030041    0.7984616    1.4931999    0.7984616 6.9812817e-06 2.4244634e-05 4.5768781e-06    10.858929    16.288377    21.717858    3841.3317 
      27            0    -832.4206     1.030041    0.7984616    1.4931999    0.7984616 -2.7658331e-06 -9.9944839e-06 -1.7960947e-06    10.858929    16.288377    21.717858    3841.3317 
      28            0    -832.4206     1.030041    0.7984616    1.4931999    0.7984616 1.7307419e-06 6.858435e-06 1.0974493e-06    10.858929    16.288377    21.717858    3841.3317 
      29            0    -832.4206     1.030041    0.7984616    1.4931999    0.7984616 -5.8108286e-07 -2.7505845e-06 -3.4892819e-07    10.858929    16.288377    21.717858    3841.3317 
      30            0    -832.4206     1.030041    0.7984616    1.4931999    0.7984616 2.1456318e-07 1.5173662e-06 1.0708608e-07    10.858929    16.288377    21.717858    3841.3317 
      31            0    -832.4206     1.030041    0.7984616    1.4931999    0.7984616 -4.9858808e-08 -9.5018355e-07 1.1724713e-09    10.858929    16.288377    21.717858    3841.3317 
      32            0    -832.4206     1.030041    0.7984616    1.4931999    0.7984616 -3.1779178e-08 6.5419044e-07 -5.4029189e-08    10.858929    16.288377    21.717858    3841.3317 
      33            0    -832.4206     1.030041    0.7984616    1.4931999    0.7984616 5.6518143e-08 -4.295162e-07 6.4183364e-08    10.858929    16.288377    21.717858    3841.3317 
      34            0    -832.4206     1.030041    0.7984616    1.4931999    0.7984616  -7.5014e-08 3.4876656e-07 -7.5403951e-08    10.858929    16.288377    21.717858    3841.3317 
      35            0    -832.4206     1.030041    0.7984616    1.4931999    0.7984616 1.0880881e-07 -4.3910711e-07 1.0655587e-07    10.858929    16.288377    21.717858    3841.3317 
      36            0    -832.4206     1.030041    0.7984616    1.4931999    0.7984616 -1.0640919e-07 4.0682013e-07 -1.0308755e-07    10.858929    16.288377    21.717858    3841.3317 
      37            0    -832.4206     1.030041    0.7984616    1.4931999    0.7984616 1.3663491e-07 -5.1155639e-07 1.319519e-07    10.858929    16.288377    21.717858    3841.3317 
      38            0    -832.4206     1.030041    0.7984616    1.4931999    0.7984616 -2.2615674e-07 8.430027e-07 -2.1820075e-07    10.858929    16.288377    21.717858    3841.3317 
      39            0    -832.4206     1.030041    0.7984616    1.4931999    0.7984616   1.7364e-07 -6.4609298e-07 1.6745887e-07    10.858929    16.288377    21.717858    3841.3317 
      40            0    -832.4206     1.030041    0.7984616    1.4931999    0.7984616 -1.3426141e-07 4.9888521e-07 -1.2942615e-07    10.858929    16.288377    21.717858    3841.3317 
      41            0    -832.4206     1.030041    0.7984616    1.4931999    0.7984616 2.3066432e-07 -8.568977e-07 2.2244202e-07    10.858929    16.288377    21.717858    3841.3317 
      42            0    -832.4206     1.030041    0.7984616    1.4931999    0.7984616 -1.7171896e-07 6.3765777e-07 -1.6551918e-07    10.858929    16.288377    21.717858    3841.3317 
      43            0    -832.4206     1.030041    0.7984616    1.4931999    0.7984616 1.9877823e-07 -7.3794663e-07 1.9159641e-07    10.858929    16.288377    21.717858    3841.3317 
      44            0    -832.4206     1.030041    0.7984616    1.4931999    0.7984616 -2.516913e-07 9.3420619e-07 -2.4245211e-07    10.858929    16.288377    21.717858    3841.3317 
      45            0    -832.4206     1.030041    0.7984616    1.4931999    0.7984616 2.7880935e-07 -1.0351789e-06 2.6850393e-07    10.858929    16.288377    21.717858    3841.3317 
      46            0    -832.4206     1.030041    0.7984616    1.4931999    0.7984616 -1.9865628e-07 7.3739829e-07 -1.9120989e-07    10.858929    16.288377    21.717858    3841.3317 
      47            0    -832.4206     1.030041    0.7984616    1.4931999    0.7984616 2.2472484e-07 -8.3433302e-07 2.1634099e-07    10.858929    16.288377    21.717858    3841.3317 
      48            0    -832.4206     1.030041    0.7984616    1.4931999    0.7984616 -1.2660034e-07 4.7029285e-07 -1.2198802e-07    10.858929    16.288377    21.717858    3841.3317 
      49            0    -832.4206     1.030041    0.7984616    1.4931999    0.7984616 3.9544175e-08 -1.4699861e-07 3.8081991e-08    10.858929    16.288377    21.717858    3841.3317 
      50            0    -832.4206     1.030041    0.7984616    1.4931999    0.7984616 -2.2242276e-08 8.3225913e-08 -2.1414131e-08    10.858929    16.288377    21.717858    3841.3317 
      51            0    -832.4206     1.030041    0.7984616    1.4931999    0.7984616 9.5629457e-09 -3.5827116e-08 9.2345759e-09    10.858929    16.288377    21.717858    3841.3317 
      52            0    -832.4206     1.030041    0.7984616    1.4931999    0.7984616 -3.0149732e-09 1.1362908e-08 -2.762355e-09    10.858929    16.288377    21.717858    3841.3317 
Loop time of 1.9583 on 1 procs for 49 steps with 192 atoms

99.9% CPU use with 1 MPI tasks x no OpenMP threads

Minimization stats:
  Stopping criterion = force tolerance
  Energy initial, next-to-last, final = 
         -832.42060258     -832.420602747     -832.420602747
  Force two-norm initial, final = 0.00295014 6.7358e-11
  Force max component initial, final = 0.000392239 1.06027e-11
  Final line search alpha, max atom move = 1 1.06027e-11
  Iterations, force evaluations = 49 98

MPI task timing breakdown:
Section |  min time  |  avg time  |  max time  |%varavg| %total
---------------------------------------------------------------
Pair    | 1.9544     | 1.9544     | 1.9544     |   0.0 | 99.80
Neigh   | 0          | 0          | 0          |   0.0 |  0.00
Comm    | 0.00066233 | 0.00066233 | 0.00066233 |   0.0 |  0.03
Output  | 0.0020385  | 0.0020385  | 0.0020385  |   0.0 |  0.10
Modify  | 0          | 0          | 0          |   0.0 |  0.00
Other   |            | 0.00122    |            |       |  0.06

Nlocal:    192 ave 192 max 192 min
Histogram: 1 0 0 0 0 0 0 0 0 0
Nghost:    634 ave 634 max 634 min
Histogram: 1 0 0 0 0 0 0 0 0 0
Neighs:    0 ave 0 max 0 min
Histogram: 1 0 0 0 0 0 0 0 0 0
FullNghs:  5376 ave 5376 max 5376 min
Histogram: 1 0 0 0 0 0 0 0 0 0

Total # of neighbors = 5376
Ave neighs/atom = 28
Neighbor list builds = 0
Dangerous builds = 0

# Obtain new stress tensor

variable tmp equal pxx
variable pxx1 equal ${tmp}
variable pxx1 equal 0.798461596520452
variable tmp equal pyy
variable pyy1 equal ${tmp}
variable pyy1 equal 1.49319990409279
variable tmp equal pzz
variable pzz1 equal ${tmp}
variable pzz1 equal 0.798461596655799
variable tmp equal pxy
variable pxy1 equal ${tmp}
variable pxy1 equal -3.01497320461271e-09
variable tmp equal pxz
variable pxz1 equal ${tmp}
variable pxz1 equal 1.13629081818885e-08
variable tmp equal pyz
variable pyz1 equal ${tmp}
variable pyz1 equal -2.76235496565756e-09

# Compute elastic constant from pressure tensor

variable C1neg equal ${d1}
variable C1neg equal 79.8461596503301
variable C2neg equal ${d2}
variable C2neg equal 149.31999041149
variable C3neg equal ${d3}
variable C3neg equal 79.8461596570228
variable C4neg equal ${d4}
variable C4neg equal -3.12347115530539e-07
variable C5neg equal ${d5}
variable C5neg equal 1.12013072195754e-06
variable C6neg equal ${d6}
variable C6neg equal -2.53360353809647e-07

# Reset box and simulation parameters

clear
box tilt large
read_restart restart.equil
  triclinic box = (0.000535482 0.000803223 0.00107096) to (10.8595 16.2892 21.7189) with tilt (0 0 0)
  1 by 1 by 1 MPI processor grid
  192 atoms
include potential.mod
# NOTE: This script can be modified for different pair styles
# See in.elastic for more info.

# Choose potential
pair_style		nn/angular2
pair_coeff		* * ../../TensorFlow/TrainingData/NNPotentialFinal 3.77118

# Setup neighbor style
neighbor 1.0 nsq
neigh_modify once no every 1 delay 0 check yes

# Setup minimization style
min_style	     cg
min_modify	     dmax ${dmax} line quadratic
min_modify	     dmax 0.01 line quadratic

# Setup output
thermo		1
thermo_style custom step temp pe press pxx pyy pzz pxy pxz pyz lx ly lz vol
thermo_modify norm no

# Positive deformation

variable delta equal ${up}*${len0}
variable delta equal 1e-06*${len0}
variable delta equal 1e-06*16.2883935530833
variable deltaxy equal ${up}*xy
variable deltaxy equal 1e-06*xy
variable deltaxz equal ${up}*xz
variable deltaxz equal 1e-06*xz
variable deltayz equal ${up}*yz
variable deltayz equal 1e-06*yz
if "${dir} == 1" then    "change_box all x delta 0 ${delta} xy delta ${deltaxy} xz delta ${deltaxz} remap units box"
if "${dir} == 2" then    "change_box all y delta 0 ${delta} yz delta ${deltayz} remap units box"
change_box all y delta 0 ${delta} yz delta ${deltayz} remap units box
change_box all y delta 0 1.62883935530833e-05 yz delta ${deltayz} remap units box
change_box all y delta 0 1.62883935530833e-05 yz delta 0 remap units box
  triclinic box = (0.000535482 0.000803223 0.00107096) to (10.8595 16.2892 21.7189) with tilt (0 0 0)
  triclinic box = (0.000535482 0.000803223 0.00107096) to (10.8595 16.2892 21.7189) with tilt (0 0 0)
if "${dir} == 3" then    "change_box all z delta 0 ${delta} remap units box"
if "${dir} == 4" then    "change_box all yz delta ${delta} remap units box"
if "${dir} == 5" then    "change_box all xz delta ${delta} remap units box"
if "${dir} == 6" then    "change_box all xy delta ${delta} remap units box"

# Relax atoms positions

minimize ${etol} ${ftol} ${maxiter} ${maxeval}
minimize 0 ${ftol} ${maxiter} ${maxeval}
minimize 0 1e-10 ${maxiter} ${maxeval}
minimize 0 1e-10 100 ${maxeval}
minimize 0 1e-10 100 1000
Neighbor list info ...
  update every 1 steps, delay 0 steps, check yes
  max neighbors/atom: 2000, page size: 100000
  master list distance cutoff = 4.77118
  ghost atom cutoff = 4.77118
  1 neighbor lists, perpetual/occasional/extra = 1 0 0
  (1) pair nn/angular2, perpetual
      pair build: full/nsq
      stencil: none
      bin: none
Memory usage per processor = 3.80664 Mbytes
Step Temp PotEng Press Pxx Pyy Pzz Pxy Pxz Pyz Lx Ly Lz Volume 
       3            0    -832.4206   -1.0299509  -0.79836884   -1.4931071  -0.79837687 -0.087536402  -0.28941831 -0.058018081    10.858929     16.28841    21.717858    3841.3393 
       4            0    -832.4206   -1.0300293  -0.79844954   -1.4931877  -0.79845062  0.022472728   0.07431195  0.014895281    10.858929     16.28841    21.717858    3841.3393 
       5            0    -832.4206   -1.0300349  -0.79845552   -1.4931937  -0.79845559 -0.019359763 -0.064024474 -0.012831998    10.858929     16.28841    21.717858    3841.3393 
       6            0    -832.4206   -1.0300357   -0.7984563   -1.4931942  -0.79845665    0.0196986  0.065147076  0.013057341    10.858929     16.28841    21.717858    3841.3393 
       7            0    -832.4206   -1.0300359  -0.79845663   -1.4931943  -0.79845674 -0.014517875 -0.048014142 -0.0096232506    10.858929     16.28841    21.717858    3841.3393 
       8            0    -832.4206    -1.030036  -0.79845676   -1.4931944  -0.79845684  0.011915147  0.039406585   0.00789811    10.858929     16.28841    21.717858    3841.3393 
       9            0    -832.4206    -1.030036  -0.79845682   -1.4931945  -0.79845687 -0.0095940888 -0.031730237 -0.006359544    10.858929     16.28841    21.717858    3841.3393 
      10            0    -832.4206   -1.0300361  -0.79845685   -1.4931945  -0.79845687 0.0082990808  0.027447276 0.0055011332    10.858929     16.28841    21.717858    3841.3393 
      11            0    -832.4206   -1.0300361  -0.79845686   -1.4931945  -0.79845688 -0.0073191373 -0.024206258 -0.0048515363    10.858929     16.28841    21.717858    3841.3393 
      12            0    -832.4206   -1.0300361  -0.79845687   -1.4931945  -0.79845688 0.0059369632  0.019634997 0.0039353528    10.858929     16.28841    21.717858    3841.3393 
      13            0    -832.4206   -1.0300361  -0.79845687   -1.4931945  -0.79845688 -0.0049416101 -0.016343017 -0.0032755591    10.858929     16.28841    21.717858    3841.3393 
      14            0    -832.4206   -1.0300361  -0.79845688   -1.4931945  -0.79845688 0.0033765139   0.01116682 0.0022381283    10.858929     16.28841    21.717858    3841.3393 
      15            0    -832.4206   -1.0300361  -0.79845688   -1.4931945  -0.79845688 -0.0022178436 -0.0073347353 -0.0014700905    10.858929     16.28841    21.717858    3841.3393 
      16            0    -832.4206   -1.0300361  -0.79845688   -1.4931945  -0.79845688 0.0015232782 0.0050375998 0.0010096941    10.858929     16.28841    21.717858    3841.3393 
      17            0    -832.4206   -1.0300361  -0.79845688   -1.4931945  -0.79845688 -0.00095857931 -0.0031699535 -0.00063537822    10.858929     16.28841    21.717858    3841.3393 
      18            0    -832.4206   -1.0300361  -0.79845688   -1.4931945  -0.79845688 0.00062212978 0.0020572102 0.00041236125    10.858929     16.28841    21.717858    3841.3393 
      19            0    -832.4206   -1.0300361  -0.79845688   -1.4931945  -0.79845688 -0.00029677841 -0.00098123563 -0.00019670393    10.858929     16.28841    21.717858    3841.3393 
      20            0    -832.4206   -1.0300361  -0.79845688   -1.4931945  -0.79845688 0.00016446792 0.00054361756 0.00010900037    10.858929     16.28841    21.717858    3841.3393 
      21            0    -832.4206   -1.0300361  -0.79845688   -1.4931945  -0.79845688 -8.583909e-05 -0.00028358418 -5.6881959e-05    10.858929     16.28841    21.717858    3841.3393 
      22            0    -832.4206   -1.0300361  -0.79845688   -1.4931945  -0.79845688 4.4586154e-05 0.00014712461 2.9536555e-05    10.858929     16.28841    21.717858    3841.3393 
      23            0    -832.4206   -1.0300361  -0.79845688   -1.4931945  -0.79845688 -3.5855437e-05 -0.00011800465 -2.3736737e-05    10.858929     16.28841    21.717858    3841.3393 
      24            0    -832.4206   -1.0300361  -0.79845688   -1.4931945  -0.79845688 1.5846893e-05 5.1919453e-05 1.0478823e-05    10.858929     16.28841    21.717858    3841.3393 
      25            0    -832.4206   -1.0300361  -0.79845688   -1.4931945  -0.79845688 -1.3438016e-05 -4.356806e-05 -8.8623845e-06    10.858929     16.28841    21.717858    3841.3393 
      26            0    -832.4206   -1.0300361  -0.79845688   -1.4931945  -0.79845688 7.5392757e-06 2.4003484e-05 4.9495862e-06    10.858929     16.28841    21.717858    3841.3393 
      27            0    -832.4206   -1.0300361  -0.79845688   -1.4931945  -0.79845688 -3.1748384e-06 -9.8171235e-06 -2.0694823e-06    10.858929     16.28841    21.717858    3841.3393 
      28            0    -832.4206   -1.0300361  -0.79845688   -1.4931945  -0.79845688 2.2783708e-06 6.6205695e-06 1.4632644e-06    10.858929     16.28841    21.717858    3841.3393 
      29            0    -832.4206   -1.0300361  -0.79845688   -1.4931945  -0.79845688 -9.81232e-07 -2.5767667e-06 -6.1599078e-07    10.858929     16.28841    21.717858    3841.3393 
      30            0    -832.4206   -1.0300361  -0.79845688   -1.4931945  -0.79845688 6.0454162e-07 1.3480573e-06 3.6714754e-07    10.858929     16.28841    21.717858    3841.3393 
      31            0    -832.4206   -1.0300361  -0.79845688   -1.4931945  -0.79845688 -4.2907569e-07 -7.8577218e-07 -2.5172609e-07    10.858929     16.28841    21.717858    3841.3393 
      32            0    -832.4206   -1.0300361  -0.79845688   -1.4931945  -0.79845688 3.3499612e-07 4.9519904e-07 1.9036755e-07    10.858929     16.28841    21.717858    3841.3393 
      33            0    -832.4206   -1.0300361  -0.79845688   -1.4931945  -0.79845688 -2.4122577e-07 -3.0040806e-07 -1.342485e-07    10.858929     16.28841    21.717858    3841.3393 
      34            0    -832.4206   -1.0300361  -0.79845688   -1.4931945  -0.79845688 2.1331155e-07 2.2365026e-07 1.1660345e-07    10.858929     16.28841    21.717858    3841.3393 
      35            0    -832.4206   -1.0300361  -0.79845688   -1.4931945  -0.79845688 -2.771872e-07 -2.7170851e-07 -1.5058296e-07    10.858929     16.28841    21.717858    3841.3393 
      36            0    -832.4206   -1.0300361  -0.79845688   -1.4931945  -0.79845688 2.6004235e-07 2.4762712e-07 1.4096557e-07    10.858929     16.28841    21.717858    3841.3393 
      37            0    -832.4206   -1.0300361  -0.79845688   -1.4931945  -0.79845688 -3.2865654e-07 -3.0938622e-07 -1.7805553e-07    10.858929     16.28841    21.717858    3841.3393 
      38            0    -832.4206   -1.0300361  -0.79845688   -1.4931945  -0.79845688 5.4222432e-07 5.0906188e-07 2.9354383e-07    10.858929     16.28841    21.717858    3841.3393 
      39            0    -832.4206   -1.0300361  -0.79845688   -1.4931945  -0.79845688 -4.1572951e-07 -3.8987628e-07 -2.2504436e-07    10.858929     16.28841    21.717858    3841.3393 
      40            0    -832.4206   -1.0300361  -0.79845688   -1.4931945  -0.79845688 3.211493e-07 3.0094627e-07 1.7383407e-07    10.858929     16.28841    21.717858    3841.3393 
      41            0    -832.4206   -1.0300361  -0.79845688   -1.4931945  -0.79845688 -5.5240095e-07 -5.1740344e-07 -2.9891703e-07    10.858929     16.28841    21.717858    3841.3393 
      42            0    -832.4206   -1.0300361  -0.79845688   -1.4931945  -0.79845688 4.1204522e-07 3.8572474e-07 2.2290856e-07    10.858929     16.28841    21.717858    3841.3393 
      43            0    -832.4206   -1.0300361  -0.79845688   -1.4931945  -0.79845688 -4.789208e-07 -4.4806213e-07 -2.5897113e-07    10.858929     16.28841    21.717858    3841.3393 
      44            0    -832.4206   -1.0300361  -0.79845688   -1.4931945  -0.79845688 6.1295267e-07 5.7329254e-07 3.3147674e-07    10.858929     16.28841    21.717858    3841.3393 
      45            0    -832.4206   -1.0300361  -0.79845688   -1.4931945  -0.79845688 -6.9013075e-07 -6.4531768e-07 -3.7321095e-07    10.858929     16.28841    21.717858    3841.3393 
      46            0    -832.4206   -1.0300361  -0.79845688   -1.4931945  -0.79845688 5.1189163e-07 4.7852285e-07 2.7682479e-07    10.858929     16.28841    21.717858    3841.3393 
      47            0    -832.4206   -1.0300361  -0.79845688   -1.4931945  -0.79845688 -6.1290586e-07 -5.7283481e-07 -3.3143877e-07    10.858929     16.28841    21.717858    3841.3393 
      48            0    -832.4206   -1.0300361  -0.79845688   -1.4931945  -0.79845688 3.6437418e-07 3.4043069e-07 1.9695379e-07    10.858929     16.28841    21.717858    3841.3393 
      49            0    -832.4206   -1.0300361  -0.79845688   -1.4931945  -0.79845688 -1.1747068e-07 -1.0971272e-07 -6.3350406e-08    10.858929     16.28841    21.717858    3841.3393 
      50            0    -832.4206   -1.0300361  -0.79845688   -1.4931945  -0.79845688 6.7263843e-08 6.278696e-08 3.6219289e-08    10.858929     16.28841    21.717858    3841.3393 
      51            0    -832.4206   -1.0300361  -0.79845688   -1.4931945  -0.79845688 -2.9141778e-08 -2.723018e-08 -1.5628991e-08    10.858929     16.28841    21.717858    3841.3393 
      52            0    -832.4206   -1.0300361  -0.79845688   -1.4931945  -0.79845688 9.2240426e-09 8.5673236e-09 4.8588336e-09    10.858929     16.28841    21.717858    3841.3393 
Loop time of 1.90011 on 1 procs for 49 steps with 192 atoms

100.0% CPU use with 1 MPI tasks x no OpenMP threads

Minimization stats:
  Stopping criterion = force tolerance
  Energy initial, next-to-last, final = 
         -832.42060258     -832.420602747     -832.420602747
  Force two-norm initial, final = 0.00295014 6.73446e-11
  Force max component initial, final = 0.000392238 1.05343e-11
  Final line search alpha, max atom move = 1 1.05343e-11
  Iterations, force evaluations = 49 98

MPI task timing breakdown:
Section |  min time  |  avg time  |  max time  |%varavg| %total
---------------------------------------------------------------
Pair    | 1.8965     | 1.8965     | 1.8965     |   0.0 | 99.81
Neigh   | 0          | 0          | 0          |   0.0 |  0.00
Comm    | 0.00070357 | 0.00070357 | 0.00070357 |   0.0 |  0.04
Output  | 0.0017495  | 0.0017495  | 0.0017495  |   0.0 |  0.09
Modify  | 0          | 0          | 0          |   0.0 |  0.00
Other   |            | 0.001176   |            |       |  0.06

Nlocal:    192 ave 192 max 192 min
Histogram: 1 0 0 0 0 0 0 0 0 0
Nghost:    634 ave 634 max 634 min
Histogram: 1 0 0 0 0 0 0 0 0 0
Neighs:    0 ave 0 max 0 min
Histogram: 1 0 0 0 0 0 0 0 0 0
FullNghs:  5376 ave 5376 max 5376 min
Histogram: 1 0 0 0 0 0 0 0 0 0

Total # of neighbors = 5376
Ave neighs/atom = 28
Neighbor list builds = 0
Dangerous builds = 0

# Obtain new stress tensor

variable tmp equal pe
variable e1 equal ${tmp}
variable e1 equal -832.420602746934
variable tmp equal press
variable p1 equal ${tmp}
variable p1 equal -1.03003607224677
variable tmp equal pxx
variable pxx1 equal ${tmp}
variable pxx1 equal -0.798456882495588
variable tmp equal pyy
variable pyy1 equal ${tmp}
variable pyy1 equal -1.49319445194187
variable tmp equal pzz
variable pzz1 equal ${tmp}
variable pzz1 equal -0.798456882302859
variable tmp equal pxy
variable pxy1 equal ${tmp}
variable pxy1 equal 9.22404261796184e-09
variable tmp equal pxz
variable pxz1 equal ${tmp}
variable pxz1 equal 8.56732363121701e-09
variable tmp equal pyz
variable pyz1 equal ${tmp}
variable pyz1 equal 4.8588336346594e-09

# Compute elastic constant from pressure tensor

variable C1pos equal ${d1}
variable C1pos equal 79.8456882512739
variable C2pos equal ${d2}
variable C2pos equal 149.319445191976
variable C3pos equal ${d3}
variable C3pos equal 79.845688238843
variable C4pos equal ${d4}
variable C4pos equal -4.49771744501157e-07
variable C5pos equal ${d5}
variable C5pos equal -8.40572266890391e-07
variable C6pos equal ${d6}
variable C6pos equal -9.70541228447808e-07

# Combine positive and negative

variable C1${dir} equal 0.5*(${C1neg}+${C1pos})
variable C12 equal 0.5*(${C1neg}+${C1pos})
variable C12 equal 0.5*(79.8461596503301+${C1pos})
variable C12 equal 0.5*(79.8461596503301+79.8456882512739)
variable C2${dir} equal 0.5*(${C2neg}+${C2pos})
variable C22 equal 0.5*(${C2neg}+${C2pos})
variable C22 equal 0.5*(149.31999041149+${C2pos})
variable C22 equal 0.5*(149.31999041149+149.319445191976)
variable C3${dir} equal 0.5*(${C3neg}+${C3pos})
variable C32 equal 0.5*(${C3neg}+${C3pos})
variable C32 equal 0.5*(79.8461596570228+${C3pos})
variable C32 equal 0.5*(79.8461596570228+79.845688238843)
variable C4${dir} equal 0.5*(${C4neg}+${C4pos})
variable C42 equal 0.5*(${C4neg}+${C4pos})
variable C42 equal 0.5*(-3.12347115530539e-07+${C4pos})
variable C42 equal 0.5*(-3.12347115530539e-07+-4.49771744501157e-07)
variable C5${dir} equal 0.5*(${C5neg}+${C5pos})
variable C52 equal 0.5*(${C5neg}+${C5pos})
variable C52 equal 0.5*(1.12013072195754e-06+${C5pos})
variable C52 equal 0.5*(1.12013072195754e-06+-8.40572266890391e-07)
variable C6${dir} equal 0.5*(${C6neg}+${C6pos})
variable C62 equal 0.5*(${C6neg}+${C6pos})
variable C62 equal 0.5*(-2.53360353809647e-07+${C6pos})
variable C62 equal 0.5*(-2.53360353809647e-07+-9.70541228447808e-07)

# Delete dir to make sure it is not reused

variable dir delete

# uzz Perturbation

variable dir equal 3
include displace.mod
# NOTE: This script should not need to be
# modified. See in.elastic for more info.
#
# Find which reference length to use

if "${dir} == 1" then    "variable len0 equal ${lx0}"
if "${dir} == 2" then    "variable len0 equal ${ly0}"
if "${dir} == 3" then    "variable len0 equal ${lz0}"
variable len0 equal ${lz0}
variable len0 equal 21.7178580707777
if "${dir} == 4" then    "variable len0 equal ${lz0}"
if "${dir} == 5" then    "variable len0 equal ${lz0}"
if "${dir} == 6" then    "variable len0 equal ${ly0}"

# Reset box and simulation parameters

clear
box tilt large
read_restart restart.equil
  triclinic box = (0.000535482 0.000803223 0.00107096) to (10.8595 16.2892 21.7189) with tilt (0 0 0)
  1 by 1 by 1 MPI processor grid
  192 atoms
include potential.mod
# NOTE: This script can be modified for different pair styles
# See in.elastic for more info.

# Choose potential
pair_style		nn/angular2
pair_coeff		* * ../../TensorFlow/TrainingData/NNPotentialFinal 3.77118

# Setup neighbor style
neighbor 1.0 nsq
neigh_modify once no every 1 delay 0 check yes

# Setup minimization style
min_style	     cg
min_modify	     dmax ${dmax} line quadratic
min_modify	     dmax 0.01 line quadratic

# Setup output
thermo		1
thermo_style custom step temp pe press pxx pyy pzz pxy pxz pyz lx ly lz vol
thermo_modify norm no

# Negative deformation

variable delta equal -${up}*${len0}
variable delta equal -1e-06*${len0}
variable delta equal -1e-06*21.7178580707777
variable deltaxy equal -${up}*xy
variable deltaxy equal -1e-06*xy
variable deltaxz equal -${up}*xz
variable deltaxz equal -1e-06*xz
variable deltayz equal -${up}*yz
variable deltayz equal -1e-06*yz
if "${dir} == 1" then    "change_box all x delta 0 ${delta} xy delta ${deltaxy} xz delta ${deltaxz} remap units box"
if "${dir} == 2" then    "change_box all y delta 0 ${delta} yz delta ${deltayz} remap units box"
if "${dir} == 3" then    "change_box all z delta 0 ${delta} remap units box"
change_box all z delta 0 ${delta} remap units box
change_box all z delta 0 -2.17178580707777e-05 remap units box
  triclinic box = (0.000535482 0.000803223 0.00107096) to (10.8595 16.2892 21.7189) with tilt (0 0 0)
if "${dir} == 4" then    "change_box all yz delta ${delta} remap units box"
if "${dir} == 5" then    "change_box all xz delta ${delta} remap units box"
if "${dir} == 6" then    "change_box all xy delta ${delta} remap units box"

# Relax atoms positions

minimize ${etol} ${ftol} ${maxiter} ${maxeval}
minimize 0 ${ftol} ${maxiter} ${maxeval}
minimize 0 1e-10 ${maxiter} ${maxeval}
minimize 0 1e-10 100 ${maxeval}
minimize 0 1e-10 100 1000
Neighbor list info ...
  update every 1 steps, delay 0 steps, check yes
  max neighbors/atom: 2000, page size: 100000
  master list distance cutoff = 4.77118
  ghost atom cutoff = 4.77118
  1 neighbor lists, perpetual/occasional/extra = 1 0 0
  (1) pair nn/angular2, perpetual
      pair build: full/nsq
      stencil: none
      bin: none
Memory usage per processor = 3.80664 Mbytes
Step Temp PotEng Press Pxx Pyy Pzz Pxy Pxz Pyz Lx Ly Lz Volume 
       3            0    -832.4206    1.0301262   0.79854964   0.79854898    1.4932799 -0.087536828  -0.28941972 -0.058018394    10.858929    16.288394    21.717836    3841.3317 
       4            0    -832.4206    1.0300478   0.79846894   0.79846834    1.4932062  0.022472844  0.074312333  0.014895331    10.858929    16.288394    21.717836    3841.3317 
       5            0    -832.4206    1.0300422   0.79846296   0.79846237    1.4932012 -0.019359865 -0.064024808 -0.012832014    10.858929    16.288394    21.717836    3841.3317 
       6            0    -832.4206    1.0300414   0.79846218   0.79846185    1.4932001  0.019698721  0.065147476  0.013057344    10.858929    16.288394    21.717836    3841.3317 
       7            0    -832.4206    1.0300412   0.79846185   0.79846173    1.4932001 -0.014517996 -0.048014541 -0.0096232469    10.858929    16.288394    21.717836    3841.3317 
       8            0    -832.4206    1.0300411   0.79846171   0.79846162    1.4931999  0.011915251  0.039406928 0.0078980807    10.858929    16.288394    21.717836    3841.3317 
       9            0    -832.4206    1.0300411   0.79846166   0.79846159    1.4931999 -0.0095941907 -0.031730574 -0.0063595102    10.858929    16.288394    21.717836    3841.3317 
      10            0    -832.4206     1.030041   0.79846163   0.79846159    1.4931999 0.0082991798  0.027447603 0.0055010853    10.858929    16.288394    21.717836    3841.3317 
      11            0    -832.4206     1.030041   0.79846162   0.79846158    1.4931999 -0.007319233 -0.024206575 -0.0048514774    10.858929    16.288394    21.717836    3841.3317 
      12            0    -832.4206     1.030041   0.79846161   0.79846159    1.4931999 0.0059370406  0.019635254 0.0039352874    10.858929    16.288394    21.717836    3841.3317 
      13            0    -832.4206     1.030041    0.7984616   0.79846159    1.4931999 -0.0049416548 -0.016343166 -0.0032754724    10.858929    16.288394    21.717836    3841.3317 
      14            0    -832.4206     1.030041    0.7984616   0.79846159    1.4931999 0.0033765403  0.011166909 0.0022380478    10.858929    16.288394    21.717836    3841.3317 
      15            0    -832.4206     1.030041    0.7984616   0.79846159    1.4931999 -0.0022178432 -0.0073347358     -0.00147    10.858929    16.288394    21.717836    3841.3317 
      16            0    -832.4206     1.030041    0.7984616   0.79846159    1.4931999 0.0015232756 0.0050375934 0.0010096062    10.858929    16.288394    21.717836    3841.3317 
      17            0    -832.4206     1.030041    0.7984616   0.79846159    1.4931999 -0.00095857363 -0.0031699375 -0.00063528963    10.858929    16.288394    21.717836    3841.3317 
      18            0    -832.4206     1.030041    0.7984616    0.7984616    1.4931999 0.00062212674 0.0020572035 0.00041227526    10.858929    16.288394    21.717836    3841.3317 
      19            0    -832.4206     1.030041    0.7984616    0.7984616    1.4931999 -0.00029677848 -0.00098123906 -0.00019663609    10.858929    16.288394    21.717836    3841.3317 
      20            0    -832.4206     1.030041    0.7984616    0.7984616    1.4931999 0.00016446818 0.00054362264 0.0001089271    10.858929    16.288394    21.717836    3841.3317 
      21            0    -832.4206     1.030041    0.7984616    0.7984616    1.4931999 -8.5840597e-05 -0.00028359267 -5.6813468e-05    10.858929    16.288394    21.717836    3841.3317 
      22            0    -832.4206     1.030041    0.7984616    0.7984616    1.4931999 4.458811e-05 0.00014713444 2.9462759e-05    10.858929    16.288394    21.717836    3841.3317 
      23            0    -832.4206     1.030041    0.7984616    0.7984616    1.4931999 -3.5859579e-05 -0.00011802374 -2.3609563e-05    10.858929    16.288394    21.717836    3841.3317 
      24            0    -832.4206     1.030041    0.7984616    0.7984616    1.4931999 1.5851008e-05 5.193767e-05 1.0371508e-05    10.858929    16.288394    21.717836    3841.3317 
      25            0    -832.4206     1.030041    0.7984616    0.7984616    1.4931999 -1.344541e-05 -4.3601451e-05 -8.6712113e-06    10.858929    16.288394    21.717836    3841.3317 
      26            0    -832.4206     1.030041    0.7984616    0.7984616    1.4931999 7.5473346e-06 2.4039589e-05 4.746422e-06    10.858929    16.288394    21.717836    3841.3317 
      27            0    -832.4206     1.030041    0.7984616    0.7984616    1.4931999 -3.1808536e-06 -9.8438263e-06 -1.9204272e-06    10.858929    16.288394    21.717836    3841.3317 
      28            0    -832.4206     1.030041    0.7984616    0.7984616    1.4931999 2.2864134e-06 6.6563376e-06 1.2639106e-06    10.858929    16.288394    21.717836    3841.3317 
      29            0    -832.4206     1.030041    0.7984616    0.7984616    1.4931999 -9.8700286e-07 -2.60279e-06 -4.7051555e-07    10.858929    16.288394    21.717836    3841.3317 
      30            0    -832.4206     1.030041    0.7984616    0.7984616    1.4931999 6.1011531e-07 1.3731518e-06 2.2544258e-07    10.858929    16.288394    21.717836    3841.3317 
      31            0    -832.4206     1.030041    0.7984616    0.7984616    1.4931999  -4.3435e-07 -8.1010453e-07 -1.1389434e-07    10.858929    16.288394    21.717836    3841.3317 
      32            0    -832.4206     1.030041    0.7984616    0.7984616    1.4931999 3.3997731e-07 5.1879834e-07 5.6985921e-08    10.858929    16.288394    21.717836    3841.3317 
      33            0    -832.4206     1.030041    0.7984616    0.7984616    1.4931999 -2.4524651e-07 -3.1975963e-07 -2.5847634e-08    10.858929    16.288394    21.717836    3841.3317 
      34            0    -832.4206     1.030041    0.7984616    0.7984616    1.4931999 2.1709293e-07 2.4246534e-07 1.1439911e-08    10.858929    16.288394    21.717836    3841.3317 
[...]
       9            0    -832.4206 -6.9092448e-08 -6.0605444e-07 1.4796424e-07 2.5081286e-07   -0.5845938  -0.02068362  -0.00414562    10.858929    16.288394    21.717858    3841.3355 
      10            0    -832.4206 -1.1032022e-07 -5.5454965e-07 5.873936e-08 1.6484964e-07  -0.50111097   0.01510111 0.0030268028    10.858929    16.288394    21.717858    3841.3355 
      11            0    -832.4206 -9.9139883e-08 -6.2636602e-07 1.1527747e-07 2.136689e-07  -0.56131471  -0.01070507 -0.0021457372    10.858929    16.288394    21.717858    3841.3355 
      12            0    -832.4206 -1.142365e-07 -5.9616818e-07 7.7320338e-08 1.7613834e-07  -0.52099903 0.0065761258 0.0013181884    10.858929    16.288394    21.717858    3841.3355 
      13            0    -832.4206 -1.0648446e-07 -6.2403684e-07 1.041089e-07 2.0047454e-07  -0.54645904 -0.0043372281 -0.00086946044    10.858929    16.288394    21.717858    3841.3355 
      14            0    -832.4206 -1.1124838e-07 -6.1106565e-07 9.0597398e-08 1.867231e-07  -0.53057811  0.002470079 0.00049523101    10.858929    16.288394    21.717858    3841.3355 
      15            0    -832.4206 -1.08327e-07 -6.2232586e-07 1.0143457e-07 1.9591029e-07  -0.53980085 -0.0014832214 -0.00029746765    10.858929    16.288394    21.717858    3841.3355 
      16            0    -832.4206 -1.0997238e-07 -6.1766646e-07 9.7308157e-08 1.9044115e-07  -0.53411556 0.00095376674 0.00019137315    10.858929    16.288394    21.717858    3841.3355 
      17            0    -832.4206 -1.0869356e-07 -6.2224248e-07 1.0242383e-07 1.9373798e-07  -0.53769498 -0.0005805522 -0.0001166032    10.858929    16.288394    21.717858    3841.3355 
      18            0    -832.4206 -1.0940939e-07 -6.2051745e-07 1.0088213e-07 1.9140716e-07  -0.53548115 0.00036841596 7.4105235e-05    10.858929    16.288394    21.717858    3841.3355 
      19            0    -832.4206 -1.0904942e-07 -6.2207813e-07 1.0265452e-07 1.9227533e-07  -0.53674613 -0.00017383236 -3.5071865e-05    10.858929    16.288394    21.717858    3841.3355 
      20            0    -832.4206 -1.092964e-07 -6.2171485e-07 1.0229802e-07 1.9152762e-07  -0.53611622 9.6195343e-05 1.9544201e-05    10.858929    16.288394    21.717858    3841.3355 
      21            0    -832.4206 -1.0920173e-07 -6.2211079e-07 1.0273423e-07 1.9177138e-07  -0.53645807 -5.0359446e-05 -1.0349516e-05    10.858929    16.288394    21.717858    3841.3355 
      22            0    -832.4206 -1.0923243e-07 -6.2201813e-07 1.0273282e-07 1.9158801e-07  -0.53627879 2.6509794e-05 5.5934605e-06    10.858929    16.288394    21.717858    3841.3355 
      23            0    -832.4206 -1.0915706e-07 -6.2216575e-07 1.0301523e-07 1.9167934e-07  -0.53639188 -2.1997684e-05 -4.8968984e-06    10.858929    16.288394    21.717858    3841.3355 
      24            0    -832.4206 -1.091754e-07 -6.2214948e-07 1.0308569e-07 1.915376e-07  -0.53631676 1.0240976e-05 2.466974e-06    10.858929    16.288394    21.717858    3841.3355 
      25            0    -832.4206 -1.0912238e-07 -6.2216185e-07 1.0312974e-07 1.9166498e-07  -0.53636318 -9.7041791e-06 -2.6850687e-06    10.858929    16.288394    21.717858    3841.3355 
      26            0    -832.4206 -1.0923836e-07 -6.2217235e-07 1.0298177e-07 1.9147551e-07   -0.5363257 6.4226589e-06 2.0751225e-06    10.858929    16.288394    21.717858    3841.3355 
      27            0    -832.4206 -1.0919954e-07 -6.2225059e-07 1.0311319e-07 1.9153878e-07  -0.53634837 -3.3514433e-06 -1.249863e-06    10.858929    16.288394    21.717858    3841.3355 
      28            0    -832.4206 -1.0918348e-07 -6.2222273e-07 1.0313734e-07 1.9153496e-07  -0.53633287 3.3488643e-06 1.4455758e-06    10.858929    16.288394    21.717858    3841.3355 
      29            0    -832.4206 -1.0919786e-07 -6.2225515e-07 1.030525e-07 1.9160906e-07  -0.53634534 -2.0513093e-06 -9.7667314e-07    10.858929    16.288394    21.717858    3841.3355 
      30            0    -832.4206 -1.0919083e-07 -6.2223943e-07 1.0312257e-07 1.9154438e-07  -0.53633648 1.7952168e-06 9.1061352e-07    10.858929    16.288394    21.717858    3841.3355 
      31            0    -832.4206 -1.0919231e-07 -6.2223906e-07 1.030633e-07 1.9159883e-07  -0.53634442 -1.6532199e-06 -8.666328e-07    10.858929    16.288394    21.717858    3841.3355 
      32            0    -832.4206 -1.0920034e-07 -6.2221507e-07 1.0302985e-07 1.9158421e-07  -0.53633704 1.5521389e-06 8.2851175e-07    10.858929    16.288394    21.717858    3841.3355 
      33            0    -832.4206 -1.092108e-07 -6.2227387e-07 1.0304813e-07 1.9159335e-07  -0.53634347 -1.2418982e-06 -6.6876479e-07    10.858929    16.288394    21.717858    3841.3355 
      34            0    -832.4206 -1.0915269e-07 -6.2217374e-07 1.031618e-07 1.9155386e-07  -0.53633787 1.1901562e-06 6.448827e-07    10.858929    16.288394    21.717858    3841.3355 
      35            0    -832.4206 -1.0916957e-07 -6.222286e-07 1.0305021e-07 1.9166969e-07  -0.53634426 -1.586095e-06 -8.6098273e-07    10.858929    16.288394    21.717858    3841.3355 
      36            0    -832.4206 -1.0921261e-07 -6.2221721e-07 1.030204e-07 1.9155897e-07  -0.53633717 1.4988196e-06 8.1425633e-07    10.858929    16.288394    21.717858    3841.3355 
      37            0    -832.4206 -1.0917911e-07 -6.2225748e-07 1.030959e-07 1.9162425e-07  -0.53634494 -1.8851468e-06 -1.0243516e-06    10.858929    16.288394    21.717858    3841.3355 
      38            0    -832.4206 -1.0923199e-07 -6.2223314e-07 1.0300066e-07 1.915365e-07  -0.53633377 2.9741207e-06 1.6160991e-06    10.858929    16.288394    21.717858    3841.3355 
      39            0    -832.4206 -1.0922529e-07 -6.2224691e-07 1.0305574e-07 1.915153e-07   -0.5363454 -2.0817147e-06 -1.1313098e-06    10.858929    16.288394    21.717858    3841.3355 
      40            0    -832.4206 -1.0921243e-07 -6.2220698e-07 1.0309725e-07 1.9147245e-07  -0.53633745 1.3748947e-06 7.4716159e-07    10.858929    16.288394    21.717858    3841.3355 
      41            0    -832.4206 -1.0921307e-07 -6.2222167e-07 1.0306637e-07 1.915161e-07  -0.53634465 -1.7569384e-06 -9.548632e-07    10.858929    16.288394    21.717858    3841.3355 
      42            0    -832.4206 -1.0918781e-07 -6.2222885e-07 1.0309752e-07 1.9156789e-07  -0.53633856 8.9073781e-07 4.8411941e-07    10.858929    16.288394    21.717858    3841.3355 
      43            0    -832.4206 -1.0921423e-07 -6.2223849e-07 1.0310043e-07 1.9149536e-07  -0.53634212 -6.5837075e-07 -3.5786372e-07    10.858929    16.288394    21.717858    3841.3355 
      44            0    -832.4206 -1.0923872e-07 -6.222417e-07 1.0307209e-07 1.9145346e-07  -0.53633963 4.257666e-07 2.3136239e-07    10.858929    16.288394    21.717858    3841.3355 
      45            0    -832.4206 -1.0920546e-07 -6.222023e-07 1.0307617e-07 1.9150974e-07  -0.53634125 -2.7724611e-07 -1.505611e-07    10.858929    16.288394    21.717858    3841.3355 
      46            0    -832.4206 -1.0920028e-07 -6.2225691e-07 1.0303222e-07 1.9162385e-07  -0.53634039 9.7464657e-08 5.2821716e-08    10.858929    16.288394    21.717858    3841.3355 
      47            0    -832.4206 -1.0924746e-07 -6.2224341e-07 1.0299275e-07 1.9150828e-07  -0.53634076 -6.5598843e-08 -3.5323412e-08    10.858929    16.288394    21.717858    3841.3355 
      48            0    -832.4206 -1.0920959e-07 -6.2224283e-07 1.030595e-07 1.9155455e-07  -0.53634055 2.7037026e-08 1.4206797e-08    10.858929    16.288394    21.717858    3841.3355 
      49            0    -832.4206 -1.0920444e-07 -6.2220829e-07 1.0310323e-07 1.9149175e-07  -0.53634063 -7.3281613e-09 -3.5862292e-09    10.858929    16.288394    21.717858    3841.3355 
      50            0    -832.4206 -1.0923653e-07 -6.2227952e-07 1.0303599e-07 1.9153393e-07   -0.5363406 3.7606429e-09 1.4054219e-09    10.858929    16.288394    21.717858    3841.3355 
      51            0    -832.4206 -1.0922466e-07 -6.2228193e-07 1.031053e-07 1.9150265e-07  -0.53634061 -1.3722241e-09 -2.0053569e-10    10.858929    16.288394    21.717858    3841.3355 
      52            0    -832.4206 -1.0922038e-07 -6.2222539e-07 1.0301097e-07 1.9155329e-07  -0.53634061 2.423474e-10 -3.8919425e-10    10.858929    16.288394    21.717858    3841.3355 
Loop time of 1.91231 on 1 procs for 49 steps with 192 atoms

100.0% CPU use with 1 MPI tasks x no OpenMP threads

Minimization stats:
  Stopping criterion = force tolerance
  Energy initial, next-to-last, final = 
         -832.42060258     -832.420602748     -832.420602748
  Force two-norm initial, final = 0.00296153 6.73461e-11
  Force max component initial, final = 0.000392238 1.03644e-11
  Final line search alpha, max atom move = 1 1.03644e-11
  Iterations, force evaluations = 49 98

MPI task timing breakdown:
Section |  min time  |  avg time  |  max time  |%varavg| %total
---------------------------------------------------------------
Pair    | 1.9086     | 1.9086     | 1.9086     |   0.0 | 99.80
Neigh   | 0          | 0          | 0          |   0.0 |  0.00
Comm    | 0.00071836 | 0.00071836 | 0.00071836 |   0.0 |  0.04
Output  | 0.0018229  | 0.0018229  | 0.0018229  |   0.0 |  0.10
Modify  | 0          | 0          | 0          |   0.0 |  0.00
Other   |            | 0.001222   |            |       |  0.06

Nlocal:    192 ave 192 max 192 min
Histogram: 1 0 0 0 0 0 0 0 0 0
Nghost:    634 ave 634 max 634 min
Histogram: 1 0 0 0 0 0 0 0 0 0
Neighs:    0 ave 0 max 0 min
Histogram: 1 0 0 0 0 0 0 0 0 0
FullNghs:  5376 ave 5376 max 5376 min
Histogram: 1 0 0 0 0 0 0 0 0 0

Total # of neighbors = 5376
Ave neighs/atom = 28
Neighbor list builds = 0
Dangerous builds = 0

# Obtain new stress tensor

variable tmp equal pe
variable e1 equal ${tmp}
variable e1 equal -832.420602748076
variable tmp equal press
variable p1 equal ${tmp}
variable p1 equal -1.09220376114123e-07
variable tmp equal pxx
variable pxx1 equal ${tmp}
variable pxx1 equal -6.22225385933996e-07
variable tmp equal pyy
variable pyy1 equal ${tmp}
variable pyy1 equal 1.03010969884283e-07
variable tmp equal pzz
variable pzz1 equal ${tmp}
variable pzz1 equal 1.91553287707345e-07
variable tmp equal pxy
variable pxy1 equal ${tmp}
variable pxy1 equal -0.536340610238008
variable tmp equal pxz
variable pxz1 equal ${tmp}
variable pxz1 equal 2.42347400326403e-10
variable tmp equal pyz
variable pyz1 equal ${tmp}
variable pyz1 equal -3.89194248768724e-10

# Compute elastic constant from pressure tensor

variable C1pos equal ${d1}
variable C1pos equal 6.22242537135296e-05
variable C2pos equal ${d2}
variable C2pos equal -1.03033075984128e-05
variable C3pos equal ${d3}
variable C3pos equal -1.91467717157853e-05
variable C4pos equal ${d4}
variable C4pos equal 7.50310438416554e-08
variable C5pos equal ${d5}
variable C5pos equal -8.07464380133e-09
variable C6pos equal ${d6}
variable C6pos equal 53.6340609756638

# Combine positive and negative

variable C1${dir} equal 0.5*(${C1neg}+${C1pos})
variable C16 equal 0.5*(${C1neg}+${C1pos})
variable C16 equal 0.5*(-6.22249240821256e-05+${C1pos})
variable C16 equal 0.5*(-6.22249240821256e-05+6.22242537135296e-05)
variable C2${dir} equal 0.5*(${C2neg}+${C2pos})
variable C26 equal 0.5*(${C2neg}+${C2pos})
variable C26 equal 0.5*(1.03101372693188e-05+${C2pos})
variable C26 equal 0.5*(1.03101372693188e-05+-1.03033075984128e-05)
variable C3${dir} equal 0.5*(${C3neg}+${C3pos})
variable C36 equal 0.5*(${C3neg}+${C3pos})
variable C36 equal 0.5*(1.91553487751203e-05+${C3pos})
variable C36 equal 0.5*(1.91553487751203e-05+-1.91467717157853e-05)
variable C4${dir} equal 0.5*(${C4neg}+${C4pos})
variable C46 equal 0.5*(${C4neg}+${C4pos})
variable C46 equal 0.5*(-1.52123189161482e-07+${C4pos})
variable C46 equal 0.5*(-1.52123189161482e-07+7.50310438416554e-08)
variable C5${dir} equal 0.5*(${C5neg}+${C5pos})
variable C56 equal 0.5*(${C5neg}+${C5pos})
variable C56 equal 0.5*(6.99125211274511e-08+${C5pos})
variable C56 equal 0.5*(6.99125211274511e-08+-8.07464380133e-09)
variable C6${dir} equal 0.5*(${C6neg}+${C6pos})
variable C66 equal 0.5*(${C6neg}+${C6pos})
variable C66 equal 0.5*(53.6340608196886+${C6pos})
variable C66 equal 0.5*(53.6340608196886+53.6340609756638)

# Delete dir to make sure it is not reused

variable dir delete

# Output final values

variable C11all equal ${C11}
variable C11all equal 149.319717805607
variable C22all equal ${C22}
variable C22all equal 149.319717801733
variable C33all equal ${C33}
variable C33all equal 149.31971780971

variable C12all equal 0.5*(${C12}+${C21})
variable C12all equal 0.5*(79.845923950802+${C21})
variable C12all equal 0.5*(79.845923950802+79.8459239581039)
variable C13all equal 0.5*(${C13}+${C31})
variable C13all equal 0.5*(79.8459239543941+${C31})
variable C13all equal 0.5*(79.8459239543941+79.8459239573552)
variable C23all equal 0.5*(${C23}+${C32})
variable C23all equal 0.5*(79.845923957654+${C32})
variable C23all equal 0.5*(79.845923957654+79.8459239479329)

variable C44all equal ${C44}
variable C44all equal 53.6340609052817
variable C55all equal ${C55}
variable C55all equal 53.6340605252732
variable C66all equal ${C66}
variable C66all equal 53.6340608976762

variable C14all equal 0.5*(${C14}+${C41})
variable C14all equal 0.5*(2.56741932695076e-09+${C41})
variable C14all equal 0.5*(2.56741932695076e-09+5.42828456837751e-07)
variable C15all equal 0.5*(${C15}+${C51})
variable C15all equal 0.5*(-4.55808092699318e-10+${C51})
variable C15all equal 0.5*(-4.55808092699318e-10+1.2823652498195e-08)
variable C16all equal 0.5*(${C16}+${C61})
variable C16all equal 0.5*(-3.35184298000976e-10+${C61})
variable C16all equal 0.5*(-3.35184298000976e-10+9.4688282582455e-09)

variable C24all equal 0.5*(${C24}+${C42})
variable C24all equal 0.5*(-1.73693617084789e-09+${C42})
variable C24all equal 0.5*(-1.73693617084789e-09+-3.81059430015848e-07)
variable C25all equal 0.5*(${C25}+${C52})
variable C25all equal 0.5*(-4.38183557575008e-09+${C52})
variable C25all equal 0.5*(-4.38183557575008e-09+1.39779227533575e-07)
variable C26all equal 0.5*(${C26}+${C62})
variable C26all equal 0.5*(3.41483545300039e-09+${C62})
variable C26all equal 0.5*(3.41483545300039e-09+-6.11950791128728e-07)

variable C34all equal 0.5*(${C34}+${C43})
variable C34all equal 0.5*(2.62280990535014e-09+${C43})
variable C34all equal 0.5*(2.62280990535014e-09+-3.22054874009218e-08)
variable C35all equal 0.5*(${C35}+${C53})
variable C35all equal 0.5*(-3.97927609255029e-09+${C53})
variable C35all equal 0.5*(-3.97927609255029e-09+-1.40849393074284e-07)
variable C36all equal 0.5*(${C36}+${C63})
variable C36all equal 0.5*(4.28852966750125e-09+${C63})
variable C36all equal 0.5*(4.28852966750125e-09+6.87209635692607e-07)

variable C45all equal 0.5*(${C45}+${C54})
variable C45all equal 0.5*(-3.52523925914218e-07+${C54})
variable C45all equal 0.5*(-3.52523925914218e-07+1.15095018754725e-08)
variable C46all equal 0.5*(${C46}+${C64})
variable C46all equal 0.5*(-3.85460726599133e-08+${C64})
variable C46all equal 0.5*(-3.85460726599133e-08+-1.16619794135373e-07)
variable C56all equal 0.5*(${C56}+${C65})
variable C56all equal 0.5*(3.09189386630605e-08+${C65})
variable C56all equal 0.5*(3.09189386630605e-08+-2.1364552957713e-07)

# Average moduli for cubic crystals

variable C11cubic equal (${C11all}+${C22all}+${C33all})/3.0
variable C11cubic equal (149.319717805607+${C22all}+${C33all})/3.0
variable C11cubic equal (149.319717805607+149.319717801733+${C33all})/3.0
variable C11cubic equal (149.319717805607+149.319717801733+149.31971780971)/3.0
variable C12cubic equal (${C12all}+${C13all}+${C23all})/3.0
variable C12cubic equal (79.845923954453+${C13all}+${C23all})/3.0
variable C12cubic equal (79.845923954453+79.8459239558746+${C23all})/3.0
variable C12cubic equal (79.845923954453+79.8459239558746+79.8459239527934)/3.0
variable C44cubic equal (${C44all}+${C55all}+${C66all})/3.0
variable C44cubic equal (53.6340609052817+${C55all}+${C66all})/3.0
variable C44cubic equal (53.6340609052817+53.6340605252732+${C66all})/3.0
variable C44cubic equal (53.6340609052817+53.6340605252732+53.6340608976762)/3.0

variable bulkmodulus equal (${C11cubic}+2*${C12cubic})/3.0
variable bulkmodulus equal (149.319717805683+2*${C12cubic})/3.0
variable bulkmodulus equal (149.319717805683+2*79.8459239543737)/3.0
variable shearmodulus1 equal ${C44cubic}
variable shearmodulus1 equal 53.634060776077
variable shearmodulus2 equal (${C11cubic}-${C12cubic})/2.0
variable shearmodulus2 equal (149.319717805683-${C12cubic})/2.0
variable shearmodulus2 equal (149.319717805683-79.8459239543737)/2.0
variable poissonratio equal 1.0/(1.0+${C11cubic}/${C12cubic})
variable poissonratio equal 1.0/(1.0+149.319717805683/${C12cubic})
variable poissonratio equal 1.0/(1.0+149.319717805683/79.8459239543737)

# For Stillinger-Weber silicon, the analytical results
# are known to be (E. R. Cowley, 1988):
#               C11 = 151.4 GPa
#               C12 = 76.4 GPa
#               C44 = 56.4 GPa

print "========================================="
=========================================
print "Components of the Elastic Constant Tensor"
Components of the Elastic Constant Tensor
print "========================================="
=========================================

print "Elastic Constant C11all = ${C11all} ${cunits}"
Elastic Constant C11all = 149.319717805607 GPa
print "Elastic Constant C22all = ${C22all} ${cunits}"
Elastic Constant C22all = 149.319717801733 GPa
print "Elastic Constant C33all = ${C33all} ${cunits}"
Elastic Constant C33all = 149.31971780971 GPa

print "Elastic Constant C12all = ${C12all} ${cunits}"
Elastic Constant C12all = 79.845923954453 GPa
print "Elastic Constant C13all = ${C13all} ${cunits}"
Elastic Constant C13all = 79.8459239558746 GPa
print "Elastic Constant C23all = ${C23all} ${cunits}"
Elastic Constant C23all = 79.8459239527934 GPa

print "Elastic Constant C44all = ${C44all} ${cunits}"
Elastic Constant C44all = 53.6340609052817 GPa
print "Elastic Constant C55all = ${C55all} ${cunits}"
Elastic Constant C55all = 53.6340605252732 GPa
print "Elastic Constant C66all = ${C66all} ${cunits}"
Elastic Constant C66all = 53.6340608976762 GPa

print "Elastic Constant C14all = ${C14all} ${cunits}"
Elastic Constant C14all = 2.72697938082351e-07 GPa
print "Elastic Constant C15all = ${C15all} ${cunits}"
Elastic Constant C15all = 6.18392220274784e-09 GPa
print "Elastic Constant C16all = ${C16all} ${cunits}"
Elastic Constant C16all = 4.56682198012226e-09 GPa

print "Elastic Constant C24all = ${C24all} ${cunits}"
Elastic Constant C24all = -1.91398183093348e-07 GPa
print "Elastic Constant C25all = ${C25all} ${cunits}"
Elastic Constant C25all = 6.76986959789125e-08 GPa
print "Elastic Constant C26all = ${C26all} ${cunits}"
Elastic Constant C26all = -3.04267977837864e-07 GPa

print "Elastic Constant C34all = ${C34all} ${cunits}"
Elastic Constant C34all = -1.47913387477858e-08 GPa
print "Elastic Constant C35all = ${C35all} ${cunits}"
Elastic Constant C35all = -7.24143345834172e-08 GPa
print "Elastic Constant C36all = ${C36all} ${cunits}"
Elastic Constant C36all = 3.45749082680054e-07 GPa

print "Elastic Constant C45all = ${C45all} ${cunits}"
Elastic Constant C45all = -1.70507212019373e-07 GPa
print "Elastic Constant C46all = ${C46all} ${cunits}"
Elastic Constant C46all = -7.75829333976431e-08 GPa
print "Elastic Constant C56all = ${C56all} ${cunits}"
Elastic Constant C56all = -9.13632954570347e-08 GPa

print "========================================="
=========================================
print "Average properties for a cubic crystal"
Average properties for a cubic crystal
print "========================================="
=========================================

print "Bulk Modulus = ${bulkmodulus} ${cunits}"
Bulk Modulus = 103.003855238143 GPa
print "Shear Modulus 1 = ${shearmodulus1} ${cunits}"
Shear Modulus 1 = 53.634060776077 GPa
print "Shear Modulus 2 = ${shearmodulus2} ${cunits}"
Shear Modulus 2 = 34.7368969256547 GPa
print "Poisson Ratio = ${poissonratio}"
Poisson Ratio = 0.348420135501703
Total wall time: 0:00:23
