ITEM: TIMESTEP
500
ITEM: NUMBER OF ATOMS
2048
ITEM: BOX BOUNDS pp pp pp
0 10.9855
0 10.9855
0 10.9855
ITEM: ATOMS c_displacement[4] 
0.0215819 
0.028466 
0.0235537 
0.0123477 
0.0237794 
0.0327999 
0.00598259 
0.0100084 
0.01439 
0.00994716 
0.0344015 
0.049511 
0.0111692 
0.0205603 
0.0412222 
0.0468443 
0.0371618 
0.0479459 
0.0171366 
0.0394009 
0.0355262 
0.0166671 
0.0348928 
0.0529118 
0.04996 
0.0285507 
0.0322993 
0.0304431 
0.0132645 
0.0133994 
0.0388597 
0.0266138 
0.0312685 
0.0196343 
0.0331128 
0.0467415 
0.0194683 
0.0215292 
0.0108054 
0.0293426 
0.0167042 
0.0253343 
0.050475 
0.022721 
0.0159797 
0.0345648 
0.0217782 
0.0138566 
0.0112884 
0.0421582 
0.0178161 
0.045187 
0.0292499 
0.0126697 
0.0341519 
0.0565649 
0.0347092 
0.0492531 
0.0256148 
0.0360808 
0.0338734 
0.0415465 
0.0386754 
0.0315671 
0.0115348 
0.0278356 
0.0208458 
0.0412219 
0.021034 
0.0120832 
0.0221015 
0.0225684 
0.0313538 
0.00894923 
0.0258121 
0.0277123 
0.0165388 
0.0250479 
0.00966213 
0.0382215 
0.0397245 
0.0421047 
0.0385917 
0.0313218 
0.0152648 
0.0150275 
0.0436212 
0.0165054 
0.00951212 
0.0145287 
0.044748 
0.017276 
0.0290443 
0.0207991 
0.0131293 
0.0298169 
0.0292272 
0.0167141 
0.0127885 
0.0023189 
0.018786 
0.0252381 
0.0582795 
0.0475356 
0.0262746 
0.038536 
0.0363803 
0.0419843 
0.0351713 
0.0300584 
0.0154877 
0.0508738 
0.0367043 
0.0183905 
0.0194175 
0.0210761 
0.0335271 
0.0236638 
0.0339756 
0.0544355 
0.0309871 
0.0315724 
0.0398428 
0.0282799 
0.0344221 
0.0201999 
0.0295282 
0.0245697 
0.0182879 
0.0362765 
0.0195454 
0.0428942 
0.0272865 
0.0161162 
0.017909 
0.0355738 
0.0164616 
0.0275674 
0.0420003 
0.0203824 
0.0328908 
0.0383432 
0.0075983 
0.0160291 
0.0388386 
0.0224292 
0.0230805 
0.0357261 
0.0331116 
0.0412476 
0.0292687 
0.0314249 
0.0194413 
0.0389463 
0.0207802 
0.0120728 
0.0197847 
0.0310145 
0.0376391 
0.00969027 
0.0224487 
0.0293051 
0.0361464 
0.0261027 
0.0183788 
0.0151207 
0.0099575 
0.0341209 
0.046963 
0.0288165 
0.029623 
0.0130476 
0.0354086 
0.020185 
0.025681 
0.0279096 
0.0258325 
0.029303 
0.0372516 
0.0246563 
0.0118969 
0.0179742 
0.0226774 
0.0461703 
0.0344962 
0.0336762 
0.0164466 
0.0215036 
0.0261108 
0.0282877 
0.0100433 
0.0353851 
0.0216995 
0.0170705 
0.0240274 
0.0240952 
0.0416627 
0.0189693 
0.0343174 
0.0111234 
0.0235977 
0.026107 
0.0351777 
0.0243495 
0.0232629 
0.0374819 
0.0258165 
0.0227765 
0.030937 
0.0249493 
0.0432194 
0.0317685 
0.0117041 
0.0591364 
0.0340371 
0.0410806 
0.0250114 
0.0385002 
0.0294863 
0.0400308 
0.0338265 
0.0245156 
0.0179365 
0.00466825 
0.0409505 
0.0298361 
0.0402369 
0.034106 
0.0116972 
0.0378831 
0.018284 
0.011775 
0.0414622 
0.0135745 
0.020917 
0.0202514 
0.0246665 
0.0467982 
0.0111298 
0.0440671 
0.0496457 
0.024687 
0.0188573 
0.0378484 
0.0173359 
0.0156268 
0.0158793 
0.0242441 
0.0117245 
0.0118182 
0.0272475 
0.0415216 
0.027952 
0.0273124 
0.0242193 
0.017995 
0.0310068 
0.0304976 
0.0121904 
0.0311281 
0.0211864 
0.038397 
0.0163843 
0.0388088 
0.0145199 
0.0225819 
0.0236473 
0.0167153 
0.0220058 
0.0081908 
0.0110191 
0.0232307 
0.0322117 
0.0165553 
0.0289176 
0.0354723 
0.030161 
0.0369535 
0.0278611 
0.0468613 
0.0276271 
0.0305557 
0.0376397 
0.0217057 
0.0172839 
0.0180407 
0.0276043 
0.0380738 
0.019024 
0.0203034 
0.0186532 
0.0197087 
0.0271219 
0.0330442 
0.0389644 
0.027166 
0.0232524 
0.0415699 
0.0218011 
0.0387085 
0.033666 
0.0250471 
0.0262089 
0.0287417 
0.0236554 
0.0204158 
0.0297948 
0.026624 
0.0171343 
0.0345403 
0.0264989 
0.0190107 
0.0341794 
0.0161643 
0.0198046 
0.00387322 
0.0347531 
0.0431643 
0.0191673 
0.0209687 
0.0300223 
0.029006 
0.00586064 
0.0304162 
0.0376655 
0.0176645 
0.0372169 
0.012817 
0.0170439 
0.0262717 
0.0301597 
0.0201095 
0.00494821 
0.0276594 
0.0315752 
0.0341204 
0.0198458 
0.0428471 
0.00629647 
0.0329194 
0.0180773 
0.0100315 
0.0365275 
0.0446838 
0.0241324 
0.0319333 
0.0116034 
0.0424218 
0.0249153 
0.0289745 
0.020431 
0.0101357 
0.0277105 
0.0329012 
0.014766 
0.0193677 
0.0360288 
0.0166629 
0.0267945 
0.0371653 
0.0294314 
0.042446 
0.0259485 
0.0414301 
0.0158696 
0.0199575 
0.0273194 
0.0140806 
0.0298394 
0.0325542 
0.0592519 
0.0273628 
0.012498 
0.0331534 
0.0291297 
0.0403564 
0.0181683 
0.0196851 
0.0345996 
0.0155508 
0.0323571 
0.0292249 
0.0435738 
0.0181699 
0.0275985 
0.0329014 
0.0534059 
0.0137346 
0.0304646 
0.0107553 
0.0260615 
0.036096 
0.0164996 
0.0373267 
0.0230703 
0.0392452 
0.0225052 
0.0427088 
0.0350882 
0.0237782 
0.0128801 
0.0373655 
0.039339 
0.0251719 
0.0317189 
0.0388994 
0.0227474 
0.0218075 
0.0208247 
0.0487515 
0.0163321 
0.00963506 
0.0221664 
0.0401073 
0.0109904 
0.0394703 
0.027376 
0.0221639 
0.0119317 
0.0287126 
0.0344726 
0.00449037 
0.0240262 
0.0137667 
0.0323027 
0.0142509 
0.0303618 
0.041138 
0.0468507 
0.038634 
0.0494437 
0.0115263 
0.0457031 
0.0155332 
0.000731167 
0.0211869 
0.0326746 
0.0390848 
0.0330174 
0.0250142 
0.0493939 
0.0186894 
0.0194273 
0.0332873 
0.0127928 
0.0313951 
0.015474 
0.0182502 
0.0484174 
0.0285064 
0.0180867 
0.0288155 
0.0309279 
0.0535983 
0.0461097 
0.0135183 
0.049827 
0.0352398 
0.00923273 
0.0287794 
0.00960832 
0.0267931 
0.0352624 
0.0206719 
0.036685 
0.0355976 
0.0488652 
0.0167606 
0.0225523 
0.0348673 
0.0373899 
0.0205907 
0.0163141 
0.0296064 
0.00692065 
0.0363291 
0.022753 
0.0316589 
0.0148234 
0.0331961 
0.0252598 
0.0158287 
0.0337674 
0.02694 
0.0379055 
0.0123867 
0.0262937 
0.0230978 
0.04913 
0.0352463 
0.0458572 
0.0327382 
0.0200928 
0.0228764 
0.027971 
0.0165783 
0.034915 
0.0172122 
0.0400607 
0.0161889 
0.0338693 
0.014343 
0.0215787 
0.0268797 
0.0308141 
0.00666016 
0.00649142 
0.0265881 
0.0203594 
0.0140826 
0.0210518 
0.00586971 
0.0482785 
0.0349656 
0.0124917 
0.0582009 
0.0369968 
0.0179392 
0.0186235 
0.0153633 
0.0174211 
0.0505257 
0.0212535 
0.0254572 
0.0442805 
0.00557878 
0.0298496 
0.0160536 
0.0293426 
0.0269427 
0.0169556 
0.0265944 
0.0238228 
0.015549 
0.0172619 
0.0234701 
0.0185825 
0.029067 
0.0153983 
0.0568566 
0.0100038 
0.0509466 
0.0222217 
0.0260334 
0.025174 
0.0307128 
0.0252587 
0.0274235 
0.00674185 
0.00965773 
0.0258506 
0.0429279 
0.0115495 
0.0133818 
0.0444346 
0.0130451 
0.021799 
0.0350914 
0.0186616 
0.00573249 
0.0496851 
0.0109024 
0.0367816 
0.0172014 
0.0369259 
0.035584 
0.0289474 
0.0192246 
0.0215356 
0.0299757 
0.0537779 
0.0137485 
0.0289994 
0.0179521 
0.0261064 
0.0242132 
0.015779 
0.0106826 
0.0447906 
0.020341 
0.0354643 
0.0297345 
0.0264205 
0.0207511 
0.0245592 
0.0262459 
0.0161109 
0.00633228 
0.0149075 
0.0207028 
0.0222572 
0.0269903 
0.0319485 
0.0148227 
0.0242421 
0.0314463 
0.0546411 
0.0202743 
0.0114153 
0.0298718 
0.0230991 
0.0134722 
0.0179994 
0.0191225 
0.0545983 
0.0109789 
0.0209344 
0.0247607 
0.0445118 
0.0314469 
0.043817 
0.00365464 
0.0118506 
0.0185765 
0.0435111 
0.0250466 
0.028012 
0.0307349 
0.00912726 
0.0254319 
0.0231224 
0.0259004 
0.0415724 
0.0216389 
0.0546505 
0.0439637 
0.0303484 
0.0192595 
0.0295631 
0.0272021 
0.0232284 
0.0166571 
0.0293809 
0.0242393 
0.0169857 
0.0183481 
0.0419899 
0.0338224 
0.0333176 
0.0247807 
0.0335317 
0.0294698 
0.0168763 
0.0318845 
0.0281944 
0.0134765 
0.0254502 
0.0357076 
0.0421791 
0.0302005 
0.0409354 
0.0380966 
0.0488185 
0.0279363 
0.0135189 
0.0253965 
0.0481998 
0.0268435 
0.0279337 
0.0334753 
0.0313884 
0.0156137 
0.00246899 
0.0456803 
0.0484228 
0.0340838 
0.0329671 
0.0222622 
0.0135569 
0.0386447 
0.0268122 
0.0103476 
0.026082 
0.0233125 
0.0343741 
0.0439547 
0.00869429 
0.0235915 
0.0285072 
0.0308448 
0.0304259 
0.0147637 
0.0254482 
0.0345575 
0.0272206 
0.0433934 
0.0462605 
0.0216388 
0.0293346 
0.0144452 
0.0155937 
0.0263118 
0.0474037 
0.031155 
0.0179041 
0.0339555 
0.0283529 
0.0238814 
0.0307766 
0.0157545 
0.0290343 
0.0490948 
0.027204 
0.0447681 
0.0382599 
0.0392531 
0.0490623 
0.0224712 
0.0319661 
0.0198873 
0.0253891 
0.0370093 
0.0410055 
0.0238061 
0.0167184 
0.019109 
0.0179366 
0.00716533 
0.0140476 
0.0241529 
0.0349766 
0.0223345 
0.0206402 
0.0344055 
0.021331 
0.01391 
0.0411611 
0.0245039 
0.0413024 
0.0211049 
0.0317856 
0.0260888 
0.0362848 
0.0448914 
0.0284646 
0.02297 
0.0123252 
0.0434422 
0.0190877 
0.0178538 
0.0320088 
0.0300068 
0.0317721 
0.019363 
0.0128185 
0.0254953 
0.0169235 
0.0267435 
0.0124105 
0.039918 
0.0382268 
0.0432748 
0.0166229 
0.038799 
0.0164701 
0.0210725 
0.0201846 
0.0362774 
0.0301373 
0.015233 
0.0199434 
0.0177719 
0.0526258 
0.0320836 
0.0172169 
0.0460318 
0.0307076 
0.0204445 
0.0393195 
0.0400753 
0.0527601 
0.00329943 
0.0366777 
0.0218765 
0.0229325 
0.0286833 
0.0255296 
0.0129029 
0.0301716 
0.0360226 
0.0140906 
0.0159294 
0.030413 
0.0514785 
0.0551192 
0.0221059 
0.046858 
0.0109694 
0.011907 
0.0323073 
0.0196607 
0.0244216 
0.0338088 
0.0340143 
0.0419366 
0.011993 
0.0349078 
0.0330855 
0.013075 
0.0266371 
0.0135666 
0.0181128 
0.0463599 
0.0163518 
0.0192818 
0.0203515 
0.019827 
0.026749 
0.0176228 
0.0316762 
0.0274806 
0.0110187 
0.0347946 
0.022544 
0.0145016 
0.0105369 
0.0148048 
0.0129231 
0.022319 
0.0324237 
0.0320362 
0.0200052 
0.0258474 
0.0232696 
0.0225733 
0.021756 
0.0231963 
0.0165068 
0.0185211 
0.0221151 
0.0236166 
0.0304318 
0.0418583 
0.0245623 
0.0242213 
0.0204871 
0.0395339 
0.0364781 
0.0281024 
0.0194235 
0.0167141 
0.0181494 
0.0366135 
0.0297188 
0.0255732 
0.0427843 
0.0276074 
0.030475 
0.0480904 
0.0327002 
0.0267267 
0.0343362 
0.0252676 
0.0288953 
0.0309747 
0.0408929 
0.032312 
0.011698 
0.031139 
0.0144885 
0.0133408 
0.032804 
0.0227857 
0.0307453 
0.0193728 
0.0272704 
0.0351775 
0.0220945 
0.0193344 
0.0223299 
0.0226706 
0.0371862 
0.0169457 
0.0179309 
0.0242391 
0.0156659 
0.0119047 
0.0474975 
0.052412 
0.0294918 
0.0142773 
0.0264659 
0.0350659 
0.031292 
0.0422875 
0.0342372 
0.0138162 
0.0152491 
0.0202051 
0.0149628 
0.027626 
0.0400308 
0.0215078 
0.0187183 
0.0186502 
0.0248184 
0.0268353 
0.0392058 
0.0385594 
0.0304078 
0.00773999 
0.0256862 
0.0226269 
0.0111823 
0.029607 
0.0144177 
0.0278851 
0.0515214 
0.0149404 
0.0310758 
0.0195557 
0.0355716 
0.0481205 
0.0197395 
0.0212552 
0.0140654 
0.0101693 
0.0241519 
0.0248074 
0.0123961 
0.0289069 
0.01444 
0.011799 
0.0392613 
0.034278 
0.0293834 
0.0222321 
0.0349348 
0.0251702 
0.0375783 
0.0303309 
0.019207 
0.0322582 
0.0105965 
0.0381857 
0.0522807 
0.0398993 
0.0429508 
0.0249646 
0.00950064 
0.0351784 
0.0270733 
0.0251428 
0.0221193 
0.0309562 
0.0102889 
0.0361137 
0.0328166 
0.0304214 
0.0224808 
0.0159984 
0.0165595 
0.0207451 
0.0184315 
0.0296982 
0.0202029 
0.0203259 
0.0320458 
0.0208963 
0.0518166 
0.0231395 
0.0236999 
0.0500453 
0.0254012 
0.0317298 
0.0200082 
0.0114801 
0.0200839 
0.0245716 
0.0376232 
0.0277325 
0.03243 
0.0372996 
0.0366415 
0.0336757 
0.0150721 
0.0373122 
0.0241454 
0.0263297 
0.0370262 
0.0298793 
0.0108067 
0.0429936 
0.0206121 
0.0319957 
0.045908 
0.0323749 
0.0121767 
0.0214552 
0.0360656 
0.00955336 
0.0315541 
0.0327576 
0.0214629 
0.0337138 
0.025515 
0.0229168 
0.0276475 
0.0193787 
0.0206891 
0.0207586 
0.0216244 
0.0164128 
0.0123485 
0.0171355 
0.0443831 
0.018242 
0.0180232 
0.036295 
0.0305749 
0.01175 
0.0278748 
0.0201648 
0.0297511 
0.0262342 
0.0183379 
0.0277461 
0.0130363 
0.00491692 
0.0277113 
0.00499415 
0.0225823 
0.0125687 
0.0400849 
0.0214619 
0.0142425 
0.0366161 
0.022601 
0.0430676 
0.0360838 
0.0202906 
0.0114302 
0.0375087 
0.0279066 
0.0319527 
0.043582 
0.00699279 
0.041729 
0.0194465 
0.0383232 
0.0156597 
0.0234451 
0.027975 
0.011474 
0.0145255 
0.0191339 
0.0292386 
0.0192933 
0.0375577 
0.0435021 
0.0444747 
0.0565077 
0.0459002 
0.0460937 
0.0310929 
0.0318436 
0.0138139 
0.0334648 
0.0051246 
0.0239622 
0.0235255 
0.0339443 
0.0398452 
0.033665 
0.012362 
0.0491927 
0.0319043 
0.0175809 
0.0257414 
0.0402084 
0.0273529 
0.028926 
0.0278172 
0.0353295 
0.0286803 
0.0368973 
0.0182408 
0.0185129 
0.0166606 
0.0332748 
0.0502287 
0.0112009 
0.0168319 
0.00911237 
0.0125711 
0.0210417 
0.0300854 
0.0301657 
0.0175635 
0.0492663 
0.0574323 
0.0307562 
0.0290042 
0.0191524 
0.0402827 
0.0349379 
0.0174731 
0.0460587 
0.0372014 
0.0234466 
0.0173597 
0.0238247 
0.0374172 
0.0330425 
0.0499368 
0.0342883 
0.0519895 
0.026742 
0.0235833 
0.0332206 
0.0315012 
0.0420473 
0.0447643 
0.0101031 
0.0486584 
0.0178305 
0.0124306 
0.0228938 
0.0281597 
0.00720591 
0.0274188 
0.00854397 
0.0272786 
0.0348085 
0.028449 
0.0386008 
0.0387926 
0.0167534 
0.013067 
0.0256069 
0.00938709 
0.037726 
0.0150991 
0.0228908 
0.0306311 
0.0433715 
0.0248211 
0.00897947 
0.0452094 
0.0269147 
0.0362519 
0.0338922 
0.0152072 
0.0255468 
0.0179966 
0.0395719 
0.0359201 
0.0380585 
0.009844 
0.0373422 
0.0387642 
0.0271412 
0.0298463 
0.029255 
0.0494135 
0.0171293 
0.0400317 
0.0191147 
0.0330413 
0.0233697 
0.0116426 
0.0498067 
0.0224087 
0.0329476 
0.0209716 
0.0490594 
0.0223858 
0.0105721 
0.0194832 
0.0436356 
0.0449149 
0.0239259 
0.0166683 
0.0513846 
0.0234962 
0.0413479 
0.0386315 
0.0231723 
0.0256589 
0.023878 
0.0254318 
0.0334101 
0.0359883 
0.026439 
0.0349068 
0.0298743 
0.0564935 
0.0259768 
0.00742542 
0.0333869 
0.00573323 
0.0323172 
0.0265898 
0.0530487 
0.0253907 
0.0381517 
0.0261093 
0.0501769 
0.0280597 
0.0249316 
0.0245495 
0.0181037 
0.0373486 
0.023001 
0.0225935 
0.0373647 
0.00317007 
0.0184869 
0.0228005 
0.00998799 
0.0216513 
0.0306655 
0.0488121 
0.0396959 
0.0254725 
0.0298617 
0.025175 
0.010776 
0.0155817 
0.0254604 
0.0494527 
0.0316156 
0.0244588 
0.0411388 
0.0133987 
0.0114324 
0.0333967 
0.0287814 
0.0346805 
0.00617685 
0.0230106 
0.0383225 
0.0229157 
0.0394735 
0.00915627 
0.0174866 
0.0299819 
0.00729394 
0.0503313 
0.0170999 
0.0201798 
0.0350181 
0.0155525 
0.0255497 
0.037877 
0.0167935 
0.0235952 
0.0219559 
0.024892 
0.0291618 
0.027065 
0.0254731 
0.025831 
0.017255 
0.0342307 
0.0419318 
0.033581 
0.044109 
0.0402397 
0.0177722 
0.00777146 
0.0371511 
0.0261773 
0.0294079 
0.00634886 
0.0328792 
0.0225817 
0.0220187 
0.0427259 
0.0478073 
0.0227535 
0.0338207 
0.0222996 
0.0363903 
0.01938 
0.0454651 
0.0142862 
0.0304876 
0.0403879 
0.0132925 
0.0567935 
0.00824939 
0.0146801 
0.0367643 
0.0290661 
0.0261292 
0.0217434 
0.00621358 
0.0226776 
0.0255512 
0.0185938 
0.0228994 
0.0177373 
0.0347572 
0.0113616 
0.0483686 
0.0547554 
0.00436328 
0.0250883 
0.0427342 
0.0613996 
0.0354554 
0.026955 
0.0321036 
0.0245576 
0.0370312 
0.0318819 
0.0185449 
0.0272626 
0.0323559 
0.0260051 
0.024816 
0.0381517 
0.0270021 
0.0142433 
0.0348235 
0.0451987 
0.0385156 
0.0549381 
0.0207693 
0.0192857 
0.0248484 
0.0271484 
0.0295259 
0.0605172 
0.0319647 
0.0329723 
0.0286693 
0.0115367 
0.0325541 
0.0263859 
0.0201685 
0.016369 
0.0543589 
0.0277802 
0.0425844 
0.0463307 
0.02925 
0.0110773 
0.0587089 
0.0274788 
0.0305851 
0.0453036 
0.0332163 
0.0388895 
0.0306312 
0.0139437 
0.0333028 
0.0268982 
0.0312995 
0.0422393 
0.0319257 
0.034118 
0.0413779 
0.0171235 
0.0338478 
0.0200552 
0.0178177 
0.0368895 
0.0380163 
0.0267473 
0.0107994 
0.0142787 
0.00937394 
0.0393249 
0.0270761 
0.0477684 
0.0302906 
0.0220585 
0.0439302 
0.0274952 
0.0187328 
0.0299986 
0.0293596 
0.0248967 
0.0498233 
0.0202416 
0.0274424 
0.0440648 
0.0379537 
0.0199381 
0.0251403 
0.0429161 
0.022997 
0.0249111 
0.017995 
0.0241549 
0.031314 
0.0214464 
0.0372879 
0.0409273 
0.0236184 
0.0185087 
0.0363955 
0.0430373 
0.0444374 
0.0144602 
0.0274014 
0.0148966 
0.0276787 
0.0181414 
0.033617 
0.0239198 
0.020124 
0.022657 
0.0307551 
0.0221801 
0.0137688 
0.0118702 
0.00406022 
0.0174862 
0.0315877 
0.0355588 
0.0372414 
0.0176543 
0.0104074 
0.0217467 
0.0141545 
0.027065 
0.0124194 
0.0192873 
0.035163 
0.0313305 
0.0278997 
0.00965209 
0.0181802 
0.0323462 
0.0247864 
0.0275267 
0.0255304 
0.0217417 
0.0317862 
0.0302492 
0.0254835 
0.043886 
0.0352363 
0.0463816 
0.028451 
0.0527897 
0.0201395 
0.0325871 
0.0225865 
0.041522 
0.0216625 
0.0324237 
0.0433441 
0.0441202 
0.0284075 
0.0235389 
0.0218022 
0.0220901 
0.0418536 
0.0149272 
0.0412398 
0.0179844 
0.00709292 
0.015303 
0.0198599 
0.0446775 
0.0309168 
0.0295327 
0.0311328 
0.00884778 
0.0331147 
0.024258 
0.0113007 
0.0392915 
0.0304148 
0.0310282 
0.0431717 
0.0176684 
0.0337316 
0.0225197 
0.0183524 
0.0349119 
0.0256887 
0.0245446 
0.0301914 
0.0387658 
0.0210996 
0.0323671 
0.0281311 
0.0296881 
0.0176173 
0.0328166 
0.0314121 
0.00975586 
0.034086 
0.0255757 
0.0269126 
0.0443574 
0.0143135 
0.038306 
0.0102303 
0.0210768 
0.0448521 
0.0171719 
0.0369979 
0.0243627 
0.0140843 
0.0129831 
0.0340504 
0.0217007 
0.0149921 
0.019997 
0.0242844 
0.0311391 
0.0283234 
0.0203823 
0.0306241 
0.0415114 
0.0187955 
0.0506263 
0.0205971 
0.014149 
0.0303608 
0.0222413 
0.0255455 
0.0292044 
0.013216 
0.0180161 
0.00995543 
0.0295499 
0.0332305 
0.019167 
0.0286889 
0.034282 
0.0368091 
0.0540658 
0.0379641 
0.0438849 
0.0259723 
0.00792236 
0.0360372 
0.0166191 
0.046669 
0.0202284 
0.0215321 
0.0564702 
0.025961 
0.0496085 
0.0294323 
0.0128785 
0.0226545 
0.0618546 
0.0299469 
0.0220308 
0.0521135 
0.00383825 
0.0331814 
0.0191545 
0.0383821 
0.024843 
0.0458206 
0.0439801 
0.0189192 
0.0257308 
0.0188996 
0.0176742 
0.0240786 
0.0125468 
0.0594952 
0.0269061 
0.0382168 
0.0381393 
0.0125302 
0.0352243 
0.0321685 
0.0163723 
0.0466898 
0.0659933 
0.039354 
0.0298041 
0.0233574 
0.0317886 
0.0322889 
0.0262665 
0.0127635 
0.0153301 
0.0099757 
0.02089 
0.0359385 
0.0341217 
0.025375 
0.0367986 
0.0146071 
0.0280184 
0.0246544 
0.0535063 
0.0236263 
0.0145446 
0.0382706 
0.0371711 
0.0387385 
0.0355691 
0.0205295 
0.0319179 
0.0285657 
0.0165462 
0.0431176 
0.0201583 
0.026925 
0.0325323 
0.0166118 
0.035289 
0.0266833 
0.0460031 
0.0495161 
0.0550785 
0.0350818 
0.0273101 
0.0102863 
0.0199124 
0.0361715 
0.0293563 
0.0145754 
0.0366832 
0.0269395 
0.0228297 
0.0405152 
0.0195024 
0.0327511 
0.0113187 
0.0303827 
0.0372429 
0.0209671 
0.0143823 
0.0033032 
0.0195425 
0.0469491 
0.034245 
0.0138627 
0.00751032 
0.0195664 
0.0468905 
0.0306315 
0.02074 
0.0339915 
0.0359437 
0.0279303 
0.0286508 
0.0202629 
0.0279227 
0.0566559 
0.0393383 
0.0240172 
0.0272593 
0.0162659 
0.0170625 
0.0509825 
0.0132053 
0.0182809 
0.0150928 
0.0193777 
0.0212812 
0.0271633 
0.0152032 
0.0390627 
0.0392828 
0.0464878 
0.0132498 
0.0128439 
0.00834852 
0.0441962 
0.0215452 
0.019644 
0.0266027 
0.0336652 
0.0324666 
0.0178661 
0.0157544 
0.0227673 
0.0288567 
0.0374034 
0.023524 
0.0336336 
0.0177901 
0.0135258 
0.00790661 
0.0276618 
0.0260623 
0.00890466 
0.0383128 
0.0339522 
0.0405264 
0.0109633 
0.0309263 
0.0160569 
0.0212513 
0.0283161 
0.0154864 
0.0330954 
0.014876 
0.0337653 
0.03788 
0.0402107 
0.0294084 
0.0357965 
0.0516308 
0.0453863 
0.0119751 
0.0187912 
0.0407499 
0.0185121 
0.0472916 
0.030959 
0.0404688 
0.0407537 
0.0121594 
0.0172545 
0.0249484 
0.0107631 
0.0244599 
0.0291084 
0.0212676 
0.0376905 
0.0189098 
0.0164238 
0.034907 
0.0198164 
0.017345 
0.00936429 
0.0423055 
0.00313285 
0.0307924 
0.0291609 
0.0168177 
0.0313654 
0.0133269 
0.0167902 
0.0368552 
0.0107189 
0.0193334 
0.0210137 
0.0115084 
0.0249566 
0.00995149 
0.0147337 
0.0186716 
0.0244528 
0.0383081 
0.0164384 
0.0277701 
0.0249247 
0.0413931 
0.0213804 
0.0322686 
0.0191835 
0.0229228 
0.0661555 
0.0233136 
0.0240279 
0.0328301 
0.0340909 
0.0292826 
0.0328905 
0.0375004 
0.0391162 
0.0314266 
0.0299711 
0.017937 
0.0330357 
0.0429311 
0.0288794 
0.0396707 
0.0316159 
0.0284777 
0.0368933 
0.00528008 
0.0262471 
0.0318434 
0.0323501 
0.0195879 
0.0335359 
0.035706 
0.0314143 
0.036586 
0.0271468 
0.03327 
0.0186938 
0.00954214 
0.0439999 
0.0440272 
0.0218814 
0.0168756 
0.0399797 
0.0329764 
0.0135026 
0.0506151 
0.0342097 
0.0138279 
0.0191526 
0.0219801 
0.0505704 
0.0331526 
0.0167515 
0.0225468 
0.0401537 
0.0321265 
0.0371566 
0.0377489 
0.0227732 
0.0261169 
0.0210692 
0.0325392 
0.0405874 
0.0393001 
0.0268113 
0.0204035 
0.0353248 
0.0407899 
0.0230986 
0.0202902 
0.0340855 
0.0277752 
0.0307937 
0.0246339 
0.0284055 
0.0417627 
0.0136387 
0.0364155 
0.029942 
0.0409334 
0.0285971 
0.0304621 
0.0186132 
0.0294905 
0.0290369 
0.0242315 
0.0282946 
0.0648256 
0.0229197 
0.0235942 
0.0439997 
0.0255631 
0.0154203 
0.0203312 
0.0449069 
0.0107067 
0.0414203 
0.0525036 
0.041823 
0.033399 
0.0401557 
0.0324038 
0.0528651 
0.010577 
0.0263413 
0.028572 
0.0207475 
0.0295013 
0.0319847 
0.0103953 
0.0382761 
0.0279 
0.0157918 
0.0192549 
0.0171657 
0.0259013 
0.00896952 
0.0239184 
0.023895 
0.0495066 
0.0446467 
0.034312 
0.0451072 
0.0423766 
0.0215934 
0.0276045 
0.0103861 
0.01712 
0.0277363 
0.026666 
0.00796845 
0.0324951 
0.0348886 
0.0268887 
0.0209064 
0.0222852 
0.0299042 
0.0148847 
0.0294406 
0.0148641 
0.0575173 
0.0394415 
0.0267867 
0.00412827 
0.0165396 
0.0376082 
0.0160375 
0.0236122 
0.0604287 
0.0421341 
0.0418471 
0.030289 
0.0561834 
0.0159245 
0.0605417 
0.0249658 
0.0484045 
0.0524024 
0.0389484 
0.0336417 
0.0265364 
0.029018 
0.0241429 
0.0198061 
0.0230953 
0.0485936 
0.0287715 
0.0359 
0.0211217 
0.0419999 
0.0170604 
0.0407389 
0.0226837 
0.0309963 
0.0172716 
0.0268168 
0.0366973 
0.0555481 
0.0164174 
0.0294869 
0.0268837 
0.0208906 
0.0122701 
0.0255955 
0.0345678 
0.0222493 
0.0453351 
0.00548517 
0.0199937 
0.0289008 
0.0293445 
0.0457503 
0.0405929 
0.0317611 
0.0298767 
0.00990002 
0.0326461 
0.0197059 
0.0253004 
0.00987831 
0.00856677 
0.00876381 
0.0506321 
0.0342806 
0.0130013 
0.0443106 
0.0570244 
0.0384972 
0.0213475 
0.0422825 
0.0323124 
0.0314342 
0.0143985 
0.0271337 
0.039947 
0.0378902 
0.0388504 
0.0436028 
0.0240762 
0.0323204 
0.0304987 
0.0357141 
0.015472 
0.00747226 
0.0332118 
0.0341383 
0.0177167 
0.0354534 
0.0308644 
0.0176171 
0.0441195 
0.0218981 
0.0155847 
0.0380095 
0.0347803 
0.0303874 
0.0408878 
0.0403056 
0.0370477 
0.0377293 
0.0284102 
0.0359159 
0.028808 
0.0213073 
0.00820254 
0.0450469 
0.0150313 
0.034527 
0.0438901 
0.0291059 
0.0188072 
0.0278816 
0.0185547 
0.0246638 
0.0253878 
0.0477574 
0.051129 
0.0311791 
0.042401 
0.0278742 
0.0359076 
0.0201854 
0.0269383 
0.0197519 
0.0214948 
0.0260832 
0.0670916 
0.0195693 
0.0248272 
0.0444514 
0.0130057 
0.017674 
0.0418988 
0.0252922 
0.024697 
0.0444991 
0.0215923 
0.0197318 
0.0375229 
0.0500943 
0.0303699 
0.0155829 
0.0349897 
0.0264913 
0.0231617 
0.0442412 
0.0380097 
0.0246134 
0.0259186 
0.038233 
0.0274155 
0.0421949 
0.017838 
0.0304716 
0.0263281 
0.0169754 
0.0229154 
0.0250018 
0.0480856 
0.00381233 
0.0277687 
0.0404453 
0.0194427 
0.0245106 
0.0262814 
