ITEM: TIMESTEP
800
ITEM: NUMBER OF ATOMS
2048
ITEM: BOX BOUNDS pp pp pp
0 10.9855
0 10.9855
0 10.9855
ITEM: ATOMS c_displacement[4] 
0.0382563 
0.00667137 
0.0133375 
0.0144564 
0.0462221 
0.0111657 
0.0552112 
0.0493516 
0.0239382 
0.0259537 
0.0362856 
0.0183987 
0.0115311 
0.0297571 
0.022063 
0.0173691 
0.0418404 
0.0269485 
0.0154811 
0.0223433 
0.0159655 
0.0334473 
0.0275789 
0.0553336 
0.0336981 
0.0434757 
0.0162475 
0.0115828 
0.0308768 
0.041608 
0.0233334 
0.0199248 
0.0382226 
0.0275117 
0.0365161 
0.0360666 
0.031896 
0.0283516 
0.0253879 
0.0208542 
0.0217906 
0.0242822 
0.026464 
0.0192539 
0.0235643 
0.0218164 
0.0228985 
0.0520867 
0.0151904 
0.0422173 
0.047951 
0.0326859 
0.0362163 
0.0288196 
0.0419476 
0.0414754 
0.0321316 
0.0419455 
0.0377938 
0.0371528 
0.0349757 
0.0244852 
0.0405966 
0.0255898 
0.0395901 
0.0160372 
0.0437181 
0.0574236 
0.0132551 
0.0218016 
0.0306849 
0.0256423 
0.0234663 
0.0474942 
0.0286069 
0.0200882 
0.0349387 
0.0252363 
0.0211724 
0.0378852 
0.0102234 
0.0132344 
0.0254259 
0.03445 
0.0330433 
0.0202992 
0.0307973 
0.0346853 
0.0226149 
0.0286117 
0.0179729 
0.0231277 
0.0131578 
0.0254546 
0.0186177 
0.0262424 
0.0246858 
0.0264892 
0.0131698 
0.0497811 
0.0284188 
0.0432047 
0.033424 
0.0306397 
0.0260113 
0.0447716 
0.0553857 
0.0152315 
0.00853293 
0.0165002 
0.0450669 
0.0158904 
0.0198388 
0.038801 
0.032723 
0.0463034 
0.0083426 
0.0269416 
0.0294728 
0.01822 
0.0169796 
0.0167874 
0.0412711 
0.0174036 
0.0261425 
0.0475206 
0.0310357 
0.0452841 
0.0157437 
0.0302636 
0.0217629 
0.0219899 
0.0132168 
0.0156659 
0.0265407 
0.0406644 
0.0218275 
0.0321526 
0.00223428 
0.0167718 
0.0191567 
0.0182138 
0.038242 
0.0245233 
0.0338559 
0.0288728 
0.0237619 
0.0193183 
0.0190831 
0.0244146 
0.0442261 
0.020203 
0.0484009 
0.013205 
0.0284563 
0.0319917 
0.0340684 
0.0287929 
0.0388551 
0.0195913 
0.0411187 
0.0122745 
0.0116193 
0.0237123 
0.0306313 
0.01733 
0.0206221 
0.0082843 
0.0527528 
0.0236227 
0.0292217 
0.046207 
0.0254448 
0.0193048 
0.00593373 
0.0335613 
0.0115254 
0.024789 
0.0177642 
0.0275655 
0.0212999 
0.0225478 
0.016261 
0.0208904 
0.0166592 
0.0422551 
0.0602473 
0.0303071 
0.0238633 
0.0159549 
0.0495014 
0.0355052 
0.036249 
0.0244137 
0.0434549 
0.0285861 
0.0280478 
0.0332029 
0.0251423 
0.0371896 
0.0229877 
0.0205703 
0.0315547 
0.065316 
0.0388159 
0.0252917 
0.0333275 
0.0257628 
0.0315712 
0.0205394 
0.0213297 
0.0100181 
0.0192996 
0.0410309 
0.0544793 
0.0441511 
0.0212565 
0.0243202 
0.0112511 
0.0196179 
0.0164037 
0.0378935 
0.0271084 
0.0402312 
0.0407047 
0.0155427 
0.00886498 
0.0367591 
0.0293336 
0.00657065 
0.0260605 
0.0255752 
0.0419373 
0.0301011 
0.0352013 
0.0186284 
0.0278994 
0.0164176 
0.0119861 
0.0390187 
0.0334264 
0.012856 
0.0451726 
0.0215623 
0.0316036 
0.0278136 
0.0384507 
0.021631 
0.0310925 
0.033201 
0.0556246 
0.0426716 
0.0234962 
0.00963723 
0.0305232 
0.0234668 
0.0386384 
0.0222445 
0.0267662 
0.0247222 
0.0271072 
0.053481 
0.0218956 
0.059133 
0.0175867 
0.0323566 
0.0301999 
0.0192869 
0.0371411 
0.0337505 
0.0195007 
0.00724019 
0.0348037 
0.0337154 
0.0278332 
0.0407589 
0.0285818 
0.0326882 
0.0168797 
0.0349031 
0.0317302 
0.0387523 
0.0269467 
0.0305142 
0.0392655 
0.00615625 
0.0300566 
0.0316063 
0.040386 
0.0584915 
0.0379303 
0.0282584 
0.0468816 
0.0210258 
0.0361249 
0.0187537 
0.0426506 
0.0414736 
0.00584735 
0.0170012 
0.0151154 
0.0103998 
0.0312801 
0.0187289 
0.031924 
0.0231305 
0.0287487 
0.0189849 
0.050742 
0.034402 
0.0332284 
0.0339272 
0.0384061 
0.0321329 
0.0261971 
0.0313488 
0.0177855 
0.024993 
0.0122019 
0.0537421 
0.0438514 
0.0222639 
0.0114777 
0.0335309 
0.0279957 
0.0278465 
0.0285452 
0.0652603 
0.0500673 
0.0316406 
0.019755 
0.0357705 
0.0461712 
0.00812661 
0.0372902 
0.0394883 
0.0402222 
0.0275408 
0.039741 
0.0268328 
0.0290817 
0.0258231 
0.022774 
0.0463137 
0.00919307 
0.0321153 
0.0281228 
0.0415216 
0.0138558 
0.0108592 
0.0684484 
0.021273 
0.020838 
0.0373924 
0.0149273 
0.0354224 
0.0145729 
0.0446907 
0.0264873 
0.040612 
0.0277693 
0.0215739 
0.02467 
0.0226848 
0.0225716 
0.020657 
0.0372906 
0.0418708 
0.0482613 
0.0473448 
0.0135181 
0.0171759 
0.0214945 
0.00501779 
0.0432089 
0.0355407 
0.0208491 
0.0311537 
0.0324733 
0.0243947 
0.0284631 
0.0266114 
0.0420403 
0.0203928 
0.0443629 
0.0201099 
0.025124 
0.0416158 
0.0360398 
0.0280121 
0.0294707 
0.0303268 
0.0401541 
0.0179342 
0.0362661 
0.00371813 
0.021697 
0.0299963 
0.0232134 
0.0184741 
0.0316524 
0.0310445 
0.033735 
0.0372072 
0.031232 
0.0055769 
0.0403738 
0.0331604 
0.0413372 
0.0199073 
0.0240665 
0.0307449 
0.0556888 
0.0315899 
0.020423 
0.0433998 
0.0489285 
0.033004 
0.0140536 
0.0608234 
0.0189657 
0.0358175 
0.0196028 
0.0163194 
0.0181802 
0.0260632 
0.0321216 
0.00465267 
0.0272006 
0.0203613 
0.03329 
0.037509 
0.00677204 
0.0290784 
0.0284156 
0.0294379 
0.016737 
0.0230663 
0.0509115 
0.0543949 
0.0169698 
0.0335743 
0.0140081 
0.0250686 
0.011084 
0.0278851 
0.0236883 
0.0185054 
0.0152783 
0.0152546 
0.0192 
0.0418231 
0.0367263 
0.0429064 
0.0291398 
0.0411566 
0.0188304 
0.0230047 
0.0571943 
0.0410951 
0.00294144 
0.0279803 
0.0204402 
0.0211537 
0.0411165 
0.0160645 
0.0151855 
0.00851501 
0.0218369 
0.00600014 
0.0209104 
0.0156657 
0.0172639 
0.0255074 
0.0339049 
0.0517607 
0.0320209 
0.0207101 
0.0195388 
0.017912 
0.0237986 
0.0119897 
0.016446 
0.0413986 
0.00939069 
0.0474151 
0.0245174 
0.0362013 
0.0446941 
0.00970766 
0.0144006 
0.0537505 
0.0207324 
0.0213437 
0.0394675 
0.028686 
0.0290434 
0.0187552 
0.0421978 
0.046146 
0.0388698 
0.0291981 
0.0254589 
0.0356235 
0.0288022 
0.0380041 
0.0339233 
0.0224749 
0.0193182 
0.0299296 
0.0161575 
0.0252717 
0.0238955 
0.0328019 
0.0326101 
0.0117702 
0.0341294 
0.02633 
0.028871 
0.0195578 
0.0358982 
0.0303154 
0.0476303 
0.0198341 
0.01692 
0.0269518 
0.0146442 
0.0333792 
0.0164911 
0.0360346 
0.0274074 
0.0216142 
0.0235827 
0.0282216 
0.00833685 
0.0506475 
0.0351406 
0.0297231 
0.0441699 
0.0114928 
0.0340492 
0.0249232 
0.0410476 
0.019603 
0.042857 
0.0399443 
0.0194126 
0.0376095 
0.0230266 
0.0261884 
0.0379717 
0.0336568 
0.0266636 
0.0220558 
0.00610928 
0.0310147 
0.0290309 
0.0274932 
0.03275 
0.0121676 
0.0307484 
0.0278758 
0.0406625 
0.0352091 
0.0403746 
0.0126917 
0.0362954 
0.0220782 
0.0141765 
0.0236233 
0.0237783 
0.0377644 
0.0313332 
0.0454104 
0.0371243 
0.0330798 
0.045128 
0.0305312 
0.0388797 
0.0257992 
0.0411507 
0.0319871 
0.0366962 
0.0293513 
0.0124159 
0.0494061 
0.0275228 
0.0240865 
0.0211517 
0.0229504 
0.0298695 
0.0377242 
0.0200745 
0.0419929 
0.0128221 
0.024746 
0.0165173 
0.0272697 
0.0248749 
0.0308924 
0.0498938 
0.0143697 
0.00891817 
0.0234956 
0.0297454 
0.022671 
0.0281267 
0.00689812 
0.0176307 
0.0238449 
0.02417 
0.0130984 
0.00926239 
0.00808877 
0.0191542 
0.0226132 
0.0473641 
0.0168242 
0.0239887 
0.0406267 
0.0362757 
0.00894394 
0.054855 
0.017507 
0.017435 
0.0480311 
0.0277558 
0.0437172 
0.0162629 
0.0266767 
0.0192688 
0.0203668 
0.046973 
0.0211712 
0.0102793 
0.0186794 
0.0326674 
0.0403653 
0.019762 
0.0321804 
0.0187349 
0.0250219 
0.0186426 
0.0220998 
0.0247929 
0.0126441 
0.0312619 
0.0238413 
0.0444471 
0.0113597 
0.0269754 
0.0204629 
0.0315083 
0.0312667 
0.0388039 
0.0126436 
0.0222969 
0.0309326 
0.0150623 
0.0258679 
0.0117961 
0.0397268 
0.0336005 
0.0315142 
0.0236269 
0.0138663 
0.0291188 
0.0366428 
0.0439322 
0.0234521 
0.0332332 
0.0129246 
0.0424453 
0.0253279 
0.0276735 
0.0507798 
0.0243064 
0.0115935 
0.0486538 
0.0313635 
0.0243593 
0.0266736 
0.0222417 
0.0415317 
0.0257782 
0.010156 
0.00459453 
0.0211332 
0.0125219 
0.0226824 
0.00967201 
0.00957388 
0.0145987 
0.029292 
0.0482271 
0.0451116 
0.048765 
0.0223919 
0.0122659 
0.0323658 
0.0247254 
0.0391548 
0.0304775 
0.024826 
0.045571 
0.0298039 
0.0461276 
0.0284379 
0.0430929 
0.0269822 
0.0374283 
0.0285605 
0.033035 
0.0340277 
0.0218351 
0.033424 
0.0293457 
0.0326851 
0.0197486 
0.0191348 
0.0368787 
0.0237724 
0.00897333 
0.0455104 
0.0234365 
0.0263027 
0.0174416 
0.0300107 
0.0120755 
0.044522 
0.0288248 
0.0103446 
0.0211731 
0.0373481 
0.0263033 
0.013018 
0.0367833 
0.0368092 
0.0322237 
0.0208711 
0.0305116 
0.0335448 
0.0549897 
0.0382449 
0.0521175 
0.0253742 
0.0214335 
0.0165405 
0.0179859 
0.0375537 
0.0232693 
0.0263585 
0.0418014 
0.031076 
0.0394123 
0.035513 
0.0256505 
0.0179771 
0.0222457 
0.0123624 
0.0159255 
0.0228622 
0.0379193 
0.0283632 
0.0403973 
0.0167318 
0.0211618 
0.0259098 
0.0362415 
0.0407092 
0.0226674 
0.0122681 
0.0148589 
0.0182958 
0.0191726 
0.0388263 
0.0471695 
0.0264303 
0.0284657 
0.01522 
0.0417422 
0.0134409 
0.0324808 
0.0207725 
0.0218331 
0.00718669 
0.0341269 
0.0372926 
0.0514171 
0.0322607 
0.0346019 
0.0298291 
0.0300694 
0.0161788 
0.0285176 
0.0421684 
0.0217147 
0.0259698 
0.0100152 
0.031761 
0.0307415 
0.0269791 
0.0411827 
0.0273311 
0.0317282 
0.0296176 
0.0146157 
0.035605 
0.0240027 
0.0537792 
0.0317487 
0.00865817 
0.0375265 
0.0374333 
0.0244759 
0.0165106 
0.030638 
0.0477515 
0.0337223 
0.0262362 
0.0259234 
0.0199153 
0.0103745 
0.0468286 
0.0388479 
0.0436422 
0.0196142 
0.0375994 
0.0244195 
0.0215539 
0.0400075 
0.0379209 
0.0429671 
0.0356328 
0.0218143 
0.00867314 
0.0198855 
0.0232267 
0.0279434 
0.0297717 
0.01103 
0.0127226 
0.0185849 
0.0329413 
0.042684 
0.0351647 
0.0359105 
0.034924 
0.0220299 
0.0161885 
0.0321338 
0.020552 
0.0293566 
0.0391622 
0.0585825 
0.0379486 
0.0314816 
0.0390637 
0.0541605 
0.0155055 
0.0338501 
0.0543838 
0.0261312 
0.042456 
0.00640471 
0.00614361 
0.0073498 
0.0301771 
0.0137486 
0.020963 
0.0187069 
0.0335516 
0.0148968 
0.0186856 
0.0125519 
0.027729 
0.0193275 
0.0387114 
0.0206929 
0.0124981 
0.0218625 
0.0361777 
0.0190552 
0.0411924 
0.0147009 
0.0121987 
0.045905 
0.0118675 
0.0102942 
0.028814 
0.0150253 
0.0272786 
0.0218534 
0.016419 
0.025803 
0.0226566 
0.0316669 
0.0346373 
0.0474976 
0.0242976 
0.0358638 
0.039612 
0.00511958 
0.0465431 
0.0347176 
0.0384362 
0.0238853 
0.0311307 
0.033755 
0.0440727 
0.0434921 
0.0169094 
0.0348565 
0.02274 
0.0289521 
0.0522092 
0.0520855 
0.038489 
0.0323205 
0.0283429 
0.0165292 
0.0443533 
0.0314653 
0.0656719 
0.0248815 
0.0288646 
0.0266111 
0.0149535 
0.0385539 
0.031971 
0.0272445 
0.0335319 
0.0122948 
0.0198764 
0.025973 
0.051333 
0.0444768 
0.0462854 
0.0332782 
0.0213413 
0.0389354 
0.0308016 
0.0496589 
0.0488517 
0.0482063 
0.0346653 
0.0131041 
0.0255346 
0.0566104 
0.0428373 
0.0159275 
0.0252714 
0.0210876 
0.0281146 
0.0338554 
0.0345707 
0.0433001 
0.0429888 
0.024896 
0.0359165 
0.0388372 
0.0406717 
0.0364407 
0.0336823 
0.0495667 
0.019344 
0.0140095 
0.0200438 
0.037648 
0.0331002 
0.0283841 
0.0332355 
0.023079 
0.0187431 
0.030536 
0.0112497 
0.0249738 
0.0148689 
0.0226683 
0.030294 
0.0218994 
0.0215439 
0.0358446 
0.0298235 
0.0261927 
0.0308024 
0.0239084 
0.0253077 
0.0529397 
0.0217888 
0.0428538 
0.0220926 
0.0392904 
0.0301693 
0.0322043 
0.0400689 
0.0145372 
0.0114992 
0.0374241 
0.05379 
0.0429303 
0.0357621 
0.0446961 
0.023303 
0.0182023 
0.0444916 
0.0381106 
0.0523259 
0.0418854 
0.0245722 
0.0203412 
0.0147928 
0.0362329 
0.018568 
0.0444831 
0.0361286 
0.0238696 
0.0406948 
0.0409137 
0.0394133 
0.0122214 
0.0242967 
0.0191295 
0.0309406 
0.0369189 
0.0296 
0.0219056 
0.028241 
0.0398552 
0.0342604 
0.00927898 
0.0183542 
0.0178479 
0.0376818 
0.0250664 
0.0297881 
0.0158599 
0.0261598 
0.0334178 
0.0152468 
0.0376044 
0.0327614 
0.0239501 
0.0254142 
0.0306356 
0.0342026 
0.0127655 
0.0330325 
0.021591 
0.0284671 
0.013621 
0.0285753 
0.0388682 
0.0242263 
0.0297345 
0.0325754 
0.0517708 
0.0174626 
0.0221231 
0.0310101 
0.029458 
0.0193843 
0.0407094 
0.0378216 
0.0229718 
0.0226198 
0.0137876 
0.0501181 
0.020216 
0.0222984 
0.0108247 
0.0243827 
0.0239653 
0.0322763 
0.0296983 
0.0212034 
0.0294787 
0.034375 
0.0278633 
0.033086 
0.0388674 
0.0369707 
0.023642 
0.0586708 
0.0285168 
0.0187348 
0.0116122 
0.0304837 
0.0206908 
0.0268061 
0.0207697 
0.0199759 
0.0301556 
0.0230771 
0.013972 
0.0220914 
0.0342026 
0.0212591 
0.0479751 
0.0197271 
0.0372982 
0.0256739 
0.0499777 
0.0090071 
0.0363297 
0.0423539 
0.022671 
0.0302043 
0.0263666 
0.0264404 
0.0204045 
0.0217105 
0.029824 
0.0183775 
0.014453 
0.0567553 
0.0157381 
0.0277844 
0.00763004 
0.0175063 
0.0291847 
0.0101295 
0.0414253 
0.0268096 
0.0206484 
0.0152702 
0.0138886 
0.0110069 
0.0348304 
0.0258304 
0.0193331 
0.0434045 
0.0249041 
0.0270341 
0.0222425 
0.0229769 
0.0277015 
0.03595 
0.0323491 
0.0311478 
0.0264934 
0.0250046 
0.0191207 
0.0402436 
0.0283393 
0.0441385 
0.0298486 
0.0268724 
0.0374391 
0.0476671 
0.0191034 
0.0273451 
0.00255187 
0.0503856 
0.00489807 
0.0264794 
0.0385549 
0.0267847 
0.0215331 
0.0239516 
0.0236988 
0.0155007 
0.0212451 
0.0329089 
0.0310627 
0.0430333 
0.0400871 
0.0335235 
0.0113604 
0.0280244 
0.0295558 
0.028317 
0.0210209 
0.0353265 
0.0087487 
0.0267906 
0.0194977 
0.023672 
0.0358323 
0.0142186 
0.0389595 
0.0393544 
0.019006 
0.0407716 
0.0413035 
0.0125466 
0.0319118 
0.0277951 
0.0270677 
0.03516 
0.0379113 
0.0631645 
0.0209237 
0.0263768 
0.0344712 
0.0239835 
0.0261755 
0.0470738 
0.0154 
0.0305181 
0.0279202 
0.0206047 
0.0200065 
0.0435723 
0.0172746 
0.0182674 
0.0208978 
0.0371494 
0.0332208 
0.0239772 
0.0175057 
0.0436888 
0.0202264 
0.0356059 
0.031632 
0.0547927 
0.0294743 
0.0289546 
0.0133859 
0.0388506 
0.0230664 
0.0394733 
0.0213224 
0.0352373 
0.0292551 
0.029838 
0.0300161 
0.0054384 
0.0240023 
0.0273633 
0.0396552 
0.0192745 
0.0275055 
0.0203437 
0.0154462 
0.0343121 
0.0558776 
0.0287126 
0.0206111 
0.0163241 
0.0172353 
0.0120156 
0.021538 
0.0177876 
0.0197395 
0.0174534 
0.0237003 
0.0359253 
0.0362492 
0.0446974 
0.0116019 
0.0268864 
0.024309 
0.0335795 
0.0135607 
0.0276043 
0.0192998 
0.0276024 
0.0144854 
0.0347272 
0.0503431 
0.0133785 
0.0212765 
0.0446141 
0.0191784 
0.0450068 
0.0448504 
0.0495494 
0.023531 
0.0465197 
0.0182387 
0.0154591 
0.0163506 
0.0338105 
0.045493 
0.0494316 
0.0185017 
0.0424954 
0.0216496 
0.0339066 
0.0385405 
0.0380721 
0.0264559 
0.0203351 
0.0194713 
0.030321 
0.0348888 
0.0289722 
0.0276831 
0.0406833 
0.035308 
0.0651679 
0.0501717 
0.0243094 
0.0287849 
0.033882 
0.0478398 
0.0109247 
0.0269406 
0.0448011 
0.025836 
0.0189053 
0.0361149 
0.0191816 
0.0286255 
0.0233717 
0.0126911 
0.0347395 
0.0247669 
0.0265377 
0.0100511 
0.0223929 
0.0376225 
0.0330495 
0.0163718 
0.0202289 
0.0256266 
0.0140404 
0.0276683 
0.0127395 
0.0087788 
0.0317347 
0.0274698 
0.0325558 
0.0197337 
0.0168352 
0.018983 
0.02354 
0.0199351 
0.0250832 
0.0435492 
0.0266691 
0.0251547 
0.0465688 
0.0314764 
0.036188 
0.0452765 
0.0126795 
0.0188325 
0.0459133 
0.0241363 
0.0351431 
0.0225568 
0.0267789 
0.0348863 
0.044443 
0.0455628 
0.03866 
0.0231569 
0.0220201 
0.0340615 
0.0329132 
0.0271294 
0.0152759 
0.0294191 
0.0388252 
0.029503 
0.0491005 
0.0405266 
0.0175987 
0.031709 
0.0137074 
0.0481832 
0.0174341 
0.0126722 
0.0211672 
0.0348811 
0.0439453 
0.0307548 
0.0272136 
0.0307178 
0.0203104 
0.0310281 
0.0102839 
0.0194886 
0.0296544 
0.0105177 
0.0280083 
0.0235674 
0.00661226 
0.00948329 
0.0129399 
0.00993298 
0.0225206 
0.0376331 
0.0280297 
0.0332813 
0.025272 
0.0215616 
0.0264093 
0.0159645 
0.0259218 
0.0148539 
0.0445853 
0.0146478 
0.0149174 
0.0461605 
0.0335708 
0.0300243 
0.028814 
0.0201644 
0.0196497 
0.0269325 
0.0267372 
0.0377516 
0.0362678 
0.0325255 
0.0330192 
0.026357 
0.0181723 
0.0264513 
0.0255136 
0.0465952 
0.0531368 
0.0218367 
0.0171997 
0.0445305 
0.0146707 
0.0211506 
0.0551523 
0.0256362 
0.0299459 
0.0189083 
0.0108691 
0.0224316 
0.0144024 
0.0224956 
0.0388727 
0.0300896 
0.0159417 
0.030311 
0.0097763 
0.0427157 
0.0257437 
0.0283364 
0.0260764 
0.0322812 
0.0279258 
0.0270007 
0.030755 
0.019315 
0.0289398 
0.0584746 
0.0119558 
0.039173 
0.0549232 
0.0263994 
0.0410015 
0.017029 
0.0175524 
0.00962636 
0.0327916 
0.0311216 
0.0346391 
0.0338488 
0.0397648 
0.0109688 
0.0304364 
0.0357596 
0.0215413 
0.0284345 
0.0244906 
0.0350142 
0.0529151 
0.0136068 
0.02333 
0.00786166 
0.00896892 
0.0137862 
0.0178875 
0.0165851 
0.00923361 
0.0343226 
0.0257745 
0.020191 
0.0148295 
0.0207431 
0.0103949 
0.0201525 
0.036275 
0.0146666 
0.03732 
0.0153718 
0.0298189 
0.0201316 
0.0224615 
0.00919976 
0.0152997 
0.0451916 
0.0357779 
0.0451441 
0.0139759 
0.0210166 
0.0275601 
0.0330863 
0.0149691 
0.0194649 
0.036365 
0.0216327 
0.0258515 
0.0281009 
0.0348883 
0.0156723 
0.0193093 
0.0172485 
0.0266395 
0.0250802 
0.0187067 
0.0189724 
0.0115387 
0.0253503 
0.0207039 
0.0235824 
0.0240971 
0.0109688 
0.0359412 
0.0266934 
0.0215093 
0.0219686 
0.0283517 
0.0223654 
0.034451 
0.00678779 
0.0335857 
0.0457278 
0.0142134 
0.0249711 
0.0294174 
0.0236285 
0.0285478 
0.0204317 
0.0181858 
0.0309401 
0.0347546 
0.0392091 
0.0349233 
0.0161432 
0.0173893 
0.0361183 
0.0143597 
0.0214964 
0.0322006 
0.0268685 
0.0185559 
0.0315987 
0.014405 
0.0319707 
0.0183711 
0.0169372 
0.0320466 
0.0278109 
0.0348873 
0.0351596 
0.0270387 
0.0257672 
0.0353023 
0.0425933 
0.0422123 
0.020759 
0.0246223 
0.031897 
0.027458 
0.0273677 
0.0315868 
0.012054 
0.0397813 
0.0344474 
0.0153683 
0.0266609 
0.0198259 
0.0460837 
0.0174476 
0.0201835 
0.0181745 
0.0133023 
0.0256862 
0.023627 
0.0327253 
0.032806 
0.0098417 
0.0443351 
0.0335903 
0.0504648 
0.0119746 
0.0215653 
0.044727 
0.02456 
0.0269521 
0.0291547 
0.0169201 
0.047062 
0.0342597 
0.0458827 
0.0243847 
0.0222279 
0.0345157 
0.020646 
0.0370976 
0.0288146 
0.0284552 
0.0276271 
0.0322232 
0.0183187 
0.0379931 
0.0441374 
0.0380216 
0.0269823 
0.0117443 
0.0446826 
0.0495065 
0.0388035 
0.0306568 
0.0281361 
0.0145849 
0.0299865 
0.0183031 
0.0316418 
0.00723882 
0.0352921 
0.0165186 
0.0235956 
0.022452 
0.0479711 
0.0323236 
0.0290272 
0.0297869 
0.0319608 
0.00784578 
0.0426483 
0.0238758 
0.0281179 
0.0205927 
0.0482961 
0.038374 
0.0376099 
0.0260682 
0.0138096 
0.0269866 
0.0168328 
0.0289853 
0.0228369 
0.0150684 
0.0310533 
0.0258272 
0.0146392 
0.034118 
0.0182678 
0.021782 
0.0211209 
0.0316113 
0.024515 
0.0388066 
0.0282963 
0.0253836 
0.0283365 
0.0103323 
0.021097 
0.0159363 
0.0324766 
0.0232956 
0.00552547 
0.0341871 
0.0264801 
0.0156735 
0.0218531 
0.0140071 
0.0447473 
0.0241237 
0.0262741 
0.0183582 
0.0217889 
0.0226444 
0.0186021 
0.0136975 
0.0602024 
0.0326813 
0.0493488 
0.0207176 
0.0384835 
0.033742 
0.0474452 
0.00880259 
0.0182287 
0.0336609 
0.00852944 
0.0382869 
0.0368197 
0.0250031 
0.0295745 
0.0169381 
0.0340532 
0.0302334 
0.021692 
0.0333066 
0.019402 
0.0187635 
0.0430487 
0.0209446 
0.0126397 
0.0197976 
0.0397004 
0.0239953 
0.0110675 
0.0342655 
0.00727019 
0.0181974 
0.0192418 
0.0297846 
0.0205837 
0.0363548 
0.0213961 
0.0224901 
0.0278333 
0.0574367 
0.0302925 
0.0552859 
0.022325 
0.0166906 
0.0278165 
0.0365535 
0.0390423 
0.0462012 
0.0314306 
0.0560339 
0.0236375 
0.0370869 
0.0229291 
0.0247847 
0.0335666 
0.0166624 
0.0219912 
0.0317402 
0.0172551 
0.0290493 
0.0317868 
0.0186825 
0.0229598 
0.0167321 
0.0389827 
0.0205648 
0.0257141 
0.0169827 
0.0320331 
0.034777 
0.0308117 
0.0203225 
0.0303592 
0.0306989 
0.036121 
0.017039 
0.0373241 
0.0373784 
0.012898 
0.0244178 
0.0641985 
0.0255874 
0.0137429 
0.00863459 
0.0178008 
0.0238696 
0.0256612 
0.0196914 
0.0239374 
0.0405338 
0.0118379 
0.0538641 
0.0264517 
0.0356038 
0.0233732 
0.0139291 
0.0370736 
0.0498006 
0.0345798 
0.0111327 
0.0172447 
0.0152417 
0.042297 
0.028457 
0.0319013 
0.0300117 
0.0245565 
0.0197295 
0.034001 
0.0362421 
0.0272506 
0.0232296 
0.0177416 
0.0615769 
0.0256447 
0.0251789 
0.0359866 
0.0255744 
0.0273803 
0.049266 
0.0520635 
0.0406517 
0.0314294 
0.0435534 
0.0408909 
0.0263763 
0.0300164 
0.0494178 
0.0325046 
0.0287723 
0.0314952 
0.0128759 
0.0176609 
0.0236831 
0.0332024 
0.0180589 
0.0102035 
0.0130512 
0.0286567 
0.0164921 
0.006903 
0.0295647 
0.0240898 
0.0347243 
0.0351085 
0.0263016 
0.00931345 
0.0251306 
0.0457682 
0.0280696 
0.0293461 
0.0329254 
0.0259448 
0.0136367 
0.0300895 
0.0367176 
0.0436677 
0.0221549 
0.0183196 
0.035306 
0.0387587 
0.0295658 
0.0436075 
0.0314484 
0.0126304 
0.0292479 
0.0387188 
0.00910948 
0.0110772 
0.0246897 
0.0270923 
0.0221612 
0.0360012 
0.014006 
0.0370997 
0.016573 
0.00430795 
0.0261422 
0.0227448 
0.0256221 
0.0233142 
0.0310312 
0.0287472 
0.0307525 
0.0322913 
0.0410975 
0.0278735 
0.0212425 
0.0279557 
0.0377372 
0.0195844 
0.0442254 
0.0148205 
0.0280278 
0.0263529 
0.0160992 
0.0319651 
0.0293536 
0.00818904 
0.0378547 
0.0280199 
0.0438583 
0.0333861 
0.00866005 
0.0480428 
0.0328534 
0.0159943 
0.0213771 
0.0362274 
0.0130612 
0.0275563 
0.0116746 
0.0276209 
0.0378611 
0.019391 
0.0408588 
0.0512215 
0.0413488 
0.0215705 
0.0549557 
0.0181239 
0.0290974 
0.0152371 
0.0344659 
0.0362722 
0.0129238 
0.0188583 
0.0201885 
0.0355711 
0.0242145 
0.0361006 
0.0168628 
0.00735817 
0.0319453 
0.0159867 
0.0170228 
0.0196039 
0.0158131 
0.025359 
0.0161575 
0.0186858 
0.0160415 
0.0166327 
0.0402387 
0.0348517 
0.0161302 
0.0217069 
0.0253878 
0.0202095 
0.015119 
0.0209176 
0.0306431 
0.0284802 
0.0376078 
0.0177482 
0.0175162 
0.0271339 
0.0285102 
0.0232659 
0.0376303 
0.025733 
0.0420687 
0.0285945 
0.00935341 
0.0273385 
0.0116874 
0.0300948 
0.0231354 
0.0305685 
0.0335141 
0.0388112 
0.0435169 
0.0105201 
0.0345701 
0.0260095 
0.0251482 
0.0158241 
0.0473201 
0.0167225 
0.0453888 
0.0223164 
0.0134958 
0.0467628 
0.0432229 
0.0265795 
0.010689 
0.0133489 
0.017619 
0.0285013 
0.0121602 
0.0260411 
0.0111714 
0.0272872 
0.0205764 
0.0228832 
0.0137603 
0.0127676 
0.0304368 
0.0394739 
0.023054 
0.0314048 
0.0176538 
0.0378222 
0.0256531 
0.0305558 
0.0178127 
0.0394542 
0.0224076 
0.0287368 
0.0191001 
0.0227807 
0.0365969 
0.0167477 
0.0275931 
0.0501982 
0.0181547 
0.00719269 
0.0682157 
0.035759 
0.0263686 
0.0257663 
0.0352341 
0.0321779 
0.0280953 
0.0166993 
0.0210744 
0.0318028 
0.0278385 
0.0284146 
0.0200335 
0.0236161 
0.0447614 
0.0243253 
0.0375723 
0.0197355 
0.0291812 
0.0146538 
0.0212759 
0.00572349 
0.0342669 
0.0380589 
0.0247683 
0.0311677 
0.03866 
0.0404964 
0.0220321 
0.0495393 
0.0315575 
0.0228065 
0.0275676 
0.0337881 
0.0446315 
0.0446419 
0.0448915 
0.0119459 
0.0208579 
0.0484276 
0.0261961 
0.0226518 
0.0242628 
0.018048 
0.0378598 
0.0381819 
0.0112049 
0.0459883 
0.0296159 
0.0339668 
0.0302738 
0.0200323 
0.03168 
0.0311484 
0.0217762 
0.0411248 
0.0319693 
