ITEM: TIMESTEP
1000
ITEM: NUMBER OF ATOMS
2048
ITEM: BOX BOUNDS pp pp pp
0 10.9855
0 10.9855
0 10.9855
ITEM: ATOMS c_displacement[4] 
0.0421409 
0.0373146 
0.0555763 
0.025264 
0.0328284 
0.0305725 
0.0338056 
0.0264272 
0.0247601 
0.0457341 
0.0186306 
0.0241045 
0.0378969 
0.0394974 
0.0425398 
0.0291078 
0.0174289 
0.0230868 
0.0217468 
0.0232197 
0.0372143 
0.0463344 
0.0282448 
0.0339502 
0.0327517 
0.00629473 
0.0151899 
0.0123533 
0.0305861 
0.0162628 
0.0246112 
0.0471541 
0.043185 
0.0314064 
0.0539263 
0.0185733 
0.0254048 
0.0350596 
0.0237006 
0.0271918 
0.0278512 
0.0191597 
0.0310074 
0.0214232 
0.0130566 
0.0235345 
0.0263619 
0.0121995 
0.0288146 
0.0423792 
0.0246247 
0.0196062 
0.0484048 
0.0453925 
0.0294468 
0.0284287 
0.0253462 
0.0172368 
0.0239545 
0.0243932 
0.0178076 
0.0510898 
0.0204583 
0.0139999 
0.0197629 
0.0203867 
0.0326667 
0.0189755 
0.0285964 
0.0585337 
0.04434 
0.0189728 
0.0503724 
0.0412984 
0.0344764 
0.0224354 
0.0271027 
0.0148814 
0.0236036 
0.0337412 
0.0275486 
0.0177857 
0.0125692 
0.0260955 
0.0493833 
0.0442077 
0.0356307 
0.0242395 
0.0464042 
0.0207594 
0.00890736 
0.0310992 
0.0173512 
0.0253804 
0.0288323 
0.0250577 
0.0194225 
0.038926 
0.0472739 
0.0280418 
0.00346739 
0.0417098 
0.0422567 
0.0376566 
0.0124998 
0.0369558 
0.0197664 
0.0162723 
0.0358082 
0.00861417 
0.0196873 
0.0244796 
0.0369952 
0.0175114 
0.0203929 
0.0315921 
0.0213771 
0.0206927 
0.0414443 
0.0230777 
0.0152154 
0.0667614 
0.0235013 
0.0264728 
0.0215777 
0.0260825 
0.0355116 
0.0253862 
0.0357738 
0.0371146 
0.0102839 
0.0256376 
0.0365547 
0.0177259 
0.0396151 
0.0397972 
0.0155382 
0.0136577 
0.0184712 
0.00784223 
0.0265737 
0.0320135 
0.0450751 
0.0377595 
0.0455046 
0.0162114 
0.036579 
0.0309874 
0.0380478 
0.0271342 
0.057904 
0.0316801 
0.036037 
0.0205135 
0.0226487 
0.0341169 
0.0473498 
0.0245939 
0.0292251 
0.015595 
0.0408851 
0.0101437 
0.03277 
0.0224486 
0.0306373 
0.0409958 
0.045773 
0.0186356 
0.0272389 
0.0214783 
0.0462282 
0.0331367 
0.0474813 
0.040377 
0.0293239 
0.0292434 
0.0352424 
0.0453699 
0.0158978 
0.00879566 
0.0540619 
0.0538014 
0.025923 
0.0143529 
0.0422667 
0.0481378 
0.0194763 
0.026924 
0.0761282 
0.0265643 
0.0331821 
0.047284 
0.0301912 
0.0308563 
0.0221233 
0.018501 
0.0165719 
0.0166377 
0.0345936 
0.0204751 
0.0212055 
0.020394 
0.0265889 
0.0338885 
0.0238699 
0.0354616 
0.026682 
0.0232607 
0.03207 
0.0322528 
0.0333768 
0.0198126 
0.0379492 
0.0360684 
0.0260139 
0.024833 
0.0101075 
0.0198145 
0.0391372 
0.0292573 
0.0283028 
0.0391647 
0.0309786 
0.0108092 
0.0436892 
0.0188222 
0.0243469 
0.0148495 
0.0336808 
0.0533869 
0.0511788 
0.0265445 
0.0409866 
0.0275946 
0.027726 
0.00773315 
0.0125421 
0.0295659 
0.00865404 
0.0236269 
0.0249634 
0.0209467 
0.0223519 
0.0256917 
0.0139827 
0.0388256 
0.0329944 
0.0225478 
0.0202346 
0.0276571 
0.0310365 
0.0372339 
0.0196745 
0.0224131 
0.0393411 
0.0182908 
0.0482803 
0.0277538 
0.0197987 
0.0374644 
0.0529583 
0.0450435 
0.0300658 
0.0459537 
0.0113489 
0.0506229 
0.0111845 
0.00949437 
0.0489447 
0.0253842 
0.0340852 
0.0229424 
0.0399276 
0.035633 
0.031166 
0.0119251 
0.0135728 
0.0348326 
0.0416352 
0.0365837 
0.0320967 
0.0405968 
0.0333964 
0.0107027 
0.0312714 
0.0201592 
0.0186658 
0.0341499 
0.0149796 
0.0362694 
0.0346004 
0.012331 
0.0157021 
0.0175283 
0.0270246 
0.0160888 
0.0208429 
0.0251989 
0.0458343 
0.0439361 
0.0147971 
0.0171224 
0.0381217 
0.0250375 
0.033041 
0.0330652 
0.0328067 
0.0199413 
0.0353508 
0.02751 
0.0516997 
0.0411704 
0.0249003 
0.0249677 
0.0121456 
0.0186266 
0.0331476 
0.0199463 
0.0115703 
0.0467427 
0.0398558 
0.0269906 
0.0158143 
0.0176359 
0.017541 
0.0336151 
0.0440104 
0.0213243 
0.0209808 
0.00453224 
0.0126504 
0.0277076 
0.0196512 
0.00945733 
0.0181734 
0.03184 
0.0241201 
0.0105293 
0.0287417 
0.0227251 
0.0299103 
0.0289722 
0.0269003 
0.0392662 
0.0362293 
0.0324988 
0.0430773 
0.012855 
0.0156339 
0.0153415 
0.0224156 
0.0327999 
0.0235995 
0.0131582 
0.0336316 
0.0334731 
0.0257691 
0.0228005 
0.0190806 
0.0156471 
0.0169481 
0.0322468 
0.00800179 
0.0329189 
0.0163308 
0.029873 
0.0368522 
0.0337339 
0.0680019 
0.0314759 
0.058036 
0.0187189 
0.031566 
0.0145985 
0.0201581 
0.0219206 
0.0246531 
0.0398445 
0.0131929 
0.0342124 
0.020777 
0.0418109 
0.0338881 
0.0332373 
0.00797192 
0.0303141 
0.0219505 
0.0100029 
0.0159723 
0.0445852 
0.0212075 
0.0191423 
0.0365745 
0.030381 
0.0376888 
0.0280604 
0.0433635 
0.0466988 
0.0279459 
0.0321655 
0.032969 
0.0231232 
0.0226541 
0.0206437 
0.040811 
0.00272751 
0.0167393 
0.0468761 
0.0229746 
0.0054713 
0.0105004 
0.00783538 
0.0253448 
0.0304465 
0.0244323 
0.00985646 
0.0183776 
0.0410351 
0.0417436 
0.0498217 
0.0224687 
0.0121721 
0.0315736 
0.0126459 
0.0164536 
0.0167478 
0.0346178 
0.0283948 
0.0155661 
0.0219759 
0.0136502 
0.0153974 
0.025888 
0.022642 
0.052365 
0.0359184 
0.0229804 
0.0392443 
0.0228952 
0.0346481 
0.0333973 
0.0431721 
0.0355063 
0.0131894 
0.0165502 
0.023728 
0.0340988 
0.0369361 
0.0192679 
0.033062 
0.0327085 
0.0359117 
0.028785 
0.0305079 
0.0354292 
0.047637 
0.0464112 
0.00783303 
0.0363221 
0.0471798 
0.0620597 
0.0400913 
0.034327 
0.0339146 
0.0195953 
0.0186921 
0.0286949 
0.0225924 
0.0459819 
0.0478526 
0.0341581 
0.0342811 
0.0222176 
0.0342372 
0.0177968 
0.0240315 
0.0361211 
0.0315468 
0.0279501 
0.0285904 
0.0345021 
0.0381432 
0.0235455 
0.00502773 
0.0273033 
0.0239312 
0.0495605 
0.0407885 
0.0434187 
0.0222289 
0.0269226 
0.0376917 
0.0353937 
0.0124128 
0.0321498 
0.0198404 
0.0388384 
0.0174808 
0.0385583 
0.0269809 
0.0260274 
0.0177822 
0.0419089 
0.0283071 
0.0206611 
0.035446 
0.0273815 
0.0462641 
0.0133519 
0.0156235 
0.0251829 
0.0229978 
0.0258824 
0.0417375 
0.0171167 
0.0495279 
0.0302715 
0.0444829 
0.0531567 
0.0271169 
0.0604942 
0.0694727 
0.0300286 
0.0200482 
0.0182499 
0.0409842 
0.021706 
0.0399654 
0.0159509 
0.0298173 
0.0325365 
0.0259573 
0.0159122 
0.0296907 
0.00663634 
0.0256957 
0.0244879 
0.0218094 
0.0154117 
0.0240079 
0.0283797 
0.0427329 
0.0195503 
0.0132494 
0.0318658 
0.0307145 
0.0621346 
0.0374279 
0.0493561 
0.0219171 
0.0133575 
0.0296737 
0.0457253 
0.0456248 
0.0191673 
0.0402708 
0.0423376 
0.0273114 
0.0187478 
0.0195463 
0.0422285 
0.0163013 
0.0293351 
0.0106715 
0.0155859 
0.0353536 
0.0373241 
0.0346579 
0.0270951 
0.00798136 
0.0415406 
0.0492915 
0.0122816 
0.013982 
0.0237145 
0.0326053 
0.0110715 
0.0551573 
0.023432 
0.0254247 
0.0276491 
0.0497756 
0.0347352 
0.046804 
0.0350607 
0.0144395 
0.0222977 
0.00847112 
0.0225301 
0.0172896 
0.0313596 
0.0334721 
0.0222344 
0.0253452 
0.0330941 
0.0333106 
0.0302409 
0.0302754 
0.0537682 
0.0471743 
0.0116514 
0.0407696 
0.0362513 
0.0265471 
0.0476185 
0.0202939 
0.0125762 
0.0205948 
0.0155845 
0.0221614 
0.0247457 
0.0287945 
0.0263208 
0.0229795 
0.0346038 
0.0193071 
0.020846 
0.0268593 
0.0325196 
0.0328728 
0.0115973 
0.0489263 
0.0243341 
0.0314644 
0.0127018 
0.0409893 
0.0171822 
0.0139607 
0.0221677 
0.0292908 
0.0277219 
0.0196265 
0.0576023 
0.0110275 
0.0232746 
0.026033 
0.0323433 
0.0272628 
0.0209103 
0.0149322 
0.02733 
0.00669522 
0.00639681 
0.0420939 
0.0447197 
0.0334327 
0.0158964 
0.0204063 
0.0321358 
0.034343 
0.0260864 
0.0350821 
0.015509 
0.016901 
0.0400062 
0.00505835 
0.0207458 
0.01503 
0.0198767 
0.0316605 
0.022719 
0.0216183 
0.0272256 
0.0239332 
0.0237715 
0.0346221 
0.0219492 
0.0173762 
0.0262699 
0.0300122 
0.0158926 
0.0210078 
0.0159825 
0.0573033 
0.0431429 
0.0585277 
0.0102725 
0.0383554 
0.0264812 
0.0218747 
0.0270137 
0.0153082 
0.0137821 
0.044771 
0.0122759 
0.0155132 
0.02772 
0.0387934 
0.0079169 
0.0553481 
0.0355735 
0.0265168 
0.0409483 
0.0287364 
0.0323447 
0.0320003 
0.0348786 
0.0406758 
0.050797 
0.0208512 
0.0413368 
0.0398901 
0.0280536 
0.0283098 
0.0354854 
0.0147928 
0.0331626 
0.0174328 
0.0330402 
0.0344056 
0.031084 
0.0126934 
0.0194355 
0.0331388 
0.0251366 
0.0403596 
0.0179484 
0.0204451 
0.0287887 
0.0421757 
0.00917673 
0.0289455 
0.0099345 
0.0270542 
0.0259828 
0.0369369 
0.051123 
0.0221232 
0.0222487 
0.0454587 
0.0253735 
0.0235754 
0.0113275 
0.0375705 
0.0236416 
0.0337651 
0.0165226 
0.0356647 
0.0270313 
0.0353582 
0.0224976 
0.0394342 
0.0362464 
0.0223491 
0.0321105 
0.0369552 
0.0147494 
0.0126317 
0.0465632 
0.0381201 
0.0287211 
0.0039584 
0.0200492 
0.0358061 
0.021815 
0.0201866 
0.00480267 
0.0309922 
0.0162174 
0.0319784 
0.0217976 
0.0206607 
0.0183859 
0.043632 
0.0169249 
0.0197169 
0.030762 
0.0382416 
0.0118327 
0.0267942 
0.0265954 
0.0166331 
0.0364286 
0.0254606 
0.00492864 
0.018948 
0.020406 
0.043987 
0.0358034 
0.0152444 
0.0417097 
0.0087716 
0.0273208 
0.0219313 
0.0302738 
0.0182915 
0.0592948 
0.059268 
0.0289549 
0.0226492 
0.00964008 
0.0184031 
0.0107505 
0.0389428 
0.0363356 
0.0423914 
0.0202327 
0.0173218 
0.0565911 
0.0232103 
0.0232167 
0.0061348 
0.0175215 
0.0238007 
0.0261492 
0.0305255 
0.0283605 
0.0304955 
0.0093791 
0.0317728 
0.035691 
0.0135269 
0.00991528 
0.0121815 
0.0221815 
0.0212251 
0.0507825 
0.0231871 
0.0213503 
0.0216319 
0.0478135 
0.0271538 
0.0445125 
0.0364236 
0.0167225 
0.0174447 
0.0201863 
0.0380492 
0.0333902 
0.037891 
0.0387841 
0.0331851 
0.0135071 
0.0256101 
0.038916 
0.0272764 
0.00779527 
0.0206232 
0.061 
0.0347134 
0.0281453 
0.0137888 
0.0693853 
0.00576931 
0.0305589 
0.0441397 
0.0251433 
0.023312 
0.00528697 
0.0147722 
0.03778 
0.0337679 
0.0269519 
0.0149028 
0.0192352 
0.0283436 
0.0212103 
0.0297206 
0.0434692 
0.00878481 
0.0162319 
0.0323664 
0.019018 
0.0361639 
0.0220105 
0.0263412 
0.0273259 
0.0235911 
0.0183927 
0.0273849 
0.0162286 
0.0218695 
0.031522 
0.0250879 
0.022199 
0.0393694 
0.0182436 
0.0296895 
0.0147595 
0.0374644 
0.0197997 
0.0460031 
0.0317454 
0.0254838 
0.0128878 
0.0188976 
0.0388331 
0.0199309 
0.0220708 
0.0323774 
0.0144366 
0.0222634 
0.0396512 
0.0397232 
0.0192551 
0.0346854 
0.0378616 
0.0248782 
0.0321548 
0.0585772 
0.0130614 
0.0240591 
0.0413491 
0.0338233 
0.0298818 
0.0176488 
0.00980946 
0.0185329 
0.0101598 
0.0478388 
0.0186917 
0.0338321 
0.0520978 
0.0349329 
0.0354358 
0.0287952 
0.0382973 
0.0323693 
0.0494127 
0.0460701 
0.0328912 
0.0328977 
0.0219826 
0.0163454 
0.0308567 
0.0165156 
0.00807755 
0.0201257 
0.0239476 
0.0177991 
0.0309391 
0.00928515 
0.0202056 
0.0109964 
0.0248762 
0.0565681 
0.0375 
0.0082467 
0.00282811 
0.0366471 
0.0412255 
0.0133865 
0.0283754 
0.0195382 
0.0187428 
0.0279417 
0.0523447 
0.00923651 
0.018669 
0.0457384 
0.0146582 
0.0113754 
0.0231931 
0.0289798 
0.0154148 
0.0194312 
0.0299963 
0.0296259 
0.0234333 
0.0354084 
0.0111326 
0.0426147 
0.0246091 
0.0236547 
0.0193595 
0.0400033 
0.0249672 
0.0328608 
0.0529859 
0.0392616 
0.05409 
0.0203228 
0.016129 
0.0633608 
0.0133303 
0.0430543 
0.0261733 
0.0224699 
0.0294317 
0.0253186 
0.0307903 
0.00457397 
0.0388933 
0.0202584 
0.0240089 
0.0445165 
0.0375039 
0.0319406 
0.0292465 
0.0285802 
0.0233757 
0.0329975 
0.0409684 
0.029943 
0.0109521 
0.0281218 
0.0230025 
0.0382667 
0.0187143 
0.0635649 
0.0270187 
0.0273491 
0.0309614 
0.0141306 
0.00187036 
0.0231267 
0.0130816 
0.0341689 
0.033222 
0.0266598 
0.018915 
0.0178318 
0.0371995 
0.0418039 
0.0203941 
0.0305201 
0.0432216 
0.029115 
0.0392084 
0.0148924 
0.0367805 
0.0183227 
0.0223858 
0.0122188 
0.0329815 
0.0504173 
0.0439868 
0.0212392 
0.0242715 
0.0285143 
0.0340002 
0.0311991 
0.0140196 
0.00855836 
0.0181342 
0.03217 
0.0353733 
0.0299409 
0.0226212 
0.0477782 
0.0428689 
0.0228072 
0.0185469 
0.0337736 
0.034491 
0.00952406 
0.0324589 
0.050211 
0.0235008 
0.024585 
0.0117825 
0.0291958 
0.0134969 
0.0324719 
0.0180241 
0.0482301 
0.0292403 
0.0530286 
0.0366217 
0.0114321 
0.0293742 
0.0244182 
0.0445938 
0.0502945 
0.0261342 
0.0435082 
0.00588081 
0.0502872 
0.0307543 
0.0209917 
0.0126808 
0.0520001 
0.046488 
0.0138608 
0.0442642 
0.0239257 
0.0478376 
0.0343837 
0.0120819 
0.0367108 
0.0425592 
0.0364196 
0.00766539 
0.00985247 
0.0239122 
0.0168114 
0.0301893 
0.0419415 
0.0236871 
0.013673 
0.0256302 
0.0254747 
0.0219939 
0.0154717 
0.054743 
0.0207525 
0.0411988 
0.0278648 
0.0287707 
0.0310278 
0.0287056 
0.0232038 
0.0389637 
0.0278077 
0.0414613 
0.0495653 
0.0242701 
0.0280301 
0.0279342 
0.0283863 
0.027516 
0.0167684 
0.0314163 
0.0172355 
0.0174676 
0.0383576 
0.0346889 
0.0360203 
0.0215996 
0.0416838 
0.0255928 
0.0183962 
0.0226118 
0.0207474 
0.0449515 
0.0191957 
0.0345128 
0.0227377 
0.00994898 
0.0426348 
0.0193276 
0.0308483 
0.0249935 
0.0169277 
0.0519532 
0.0372355 
0.0324214 
0.0365503 
0.0216759 
0.0221624 
0.0174812 
0.0399947 
0.0492181 
0.0203836 
0.0224289 
0.0220082 
0.0457808 
0.0454065 
0.0324866 
0.0388665 
0.0118474 
0.0206158 
0.030558 
0.0224908 
0.0409213 
0.0368392 
0.0296677 
0.0193995 
0.0588436 
0.0283114 
0.040135 
0.0204151 
0.012203 
0.0441724 
0.0289983 
0.0352532 
0.0451264 
0.0375627 
0.0193906 
0.0325428 
0.0194463 
0.0358122 
0.0169328 
0.0248904 
0.0321202 
0.0240696 
0.0169748 
0.0134102 
0.0194306 
0.0173681 
0.0348362 
0.0119958 
0.011372 
0.0203991 
0.0319962 
0.0294192 
0.0255002 
0.030482 
0.0321449 
0.0412242 
0.0183236 
0.0348395 
0.029664 
0.0141804 
0.0110067 
0.0403615 
0.0458187 
0.0178889 
0.0142013 
0.0453524 
0.00904584 
0.0370141 
0.0516782 
0.0314123 
0.0230022 
0.0284301 
0.0362905 
0.0160129 
0.0236771 
0.0486637 
0.0262424 
0.0273582 
0.013816 
0.0216863 
0.0347323 
0.0252765 
0.0269219 
0.0223079 
0.0212833 
0.0326423 
0.0236574 
0.0265237 
0.0307969 
0.0287682 
0.017906 
0.0148535 
0.0397726 
0.0412306 
0.0225547 
0.020653 
0.0238504 
0.0348315 
0.0345896 
0.0227696 
0.0138729 
0.00998109 
0.0303671 
0.028212 
0.0396123 
0.0495216 
0.0276792 
0.0053731 
0.0232445 
0.0165632 
0.0216124 
0.0245354 
0.0265607 
0.0272952 
0.0168638 
0.0371796 
0.0114643 
0.0244732 
0.0498154 
0.0239051 
0.0208133 
0.0234411 
0.038971 
0.0263824 
0.02994 
0.0345428 
0.014383 
0.0119406 
0.0062231 
0.0215309 
0.00467582 
0.0233344 
0.0207235 
0.00864689 
0.0323247 
0.0201538 
0.019192 
0.00973033 
0.0310197 
0.024072 
0.0207666 
0.0252646 
0.0256184 
0.0165303 
0.0246064 
0.0281263 
0.0363428 
0.0227709 
0.0195075 
0.0190606 
0.023071 
0.0298852 
0.0184265 
0.0144542 
0.0224419 
0.0121059 
0.0360065 
0.0255525 
0.0307151 
0.0418129 
0.0222557 
0.0617679 
0.0411416 
0.0211787 
0.0281108 
0.0210168 
0.0411412 
0.0389531 
0.015886 
0.0247807 
0.0129094 
0.0202504 
0.0244391 
0.0180072 
0.0190943 
0.0203904 
0.00839891 
0.0314418 
0.030597 
0.0261985 
0.0304623 
0.043098 
0.045801 
0.0232696 
0.0259637 
0.0554164 
0.0344689 
0.020206 
0.0131298 
0.0283238 
0.0151888 
0.0509929 
0.0258931 
0.0139813 
0.0282662 
0.0421452 
0.0585546 
0.016715 
0.036179 
0.0398006 
0.0196966 
0.0113211 
0.0273103 
0.0310061 
0.0406462 
0.0328819 
0.0383759 
0.0296005 
0.023589 
0.0229518 
0.00872184 
0.0472252 
0.0328061 
0.0227152 
0.0130824 
0.0280541 
0.0430209 
0.0324571 
0.0366601 
0.0170486 
0.0228801 
0.0258788 
0.0271936 
0.00674474 
0.0237607 
0.0217485 
0.0143669 
0.0155586 
0.0346832 
0.0283731 
0.0140612 
0.0186719 
0.0336724 
0.0316311 
0.0182826 
0.0168883 
0.0182585 
0.0480428 
0.0256137 
0.0356446 
0.0147078 
0.0329722 
0.0189955 
0.0182895 
0.0413469 
0.0253975 
0.0183985 
0.0244768 
0.00415327 
0.0260354 
0.0359341 
0.0440375 
0.0321502 
0.0339553 
0.0305329 
0.0268863 
0.017786 
0.0291478 
0.0336191 
0.0197083 
0.0419109 
0.0169153 
0.043753 
0.0209584 
0.0260791 
0.0477934 
0.021664 
0.0209581 
0.0462453 
0.0352286 
0.0102418 
0.0334709 
0.022453 
0.0250346 
0.0327941 
0.0219308 
0.0156525 
0.0124751 
0.0165381 
0.011074 
0.0252015 
0.0279493 
0.0279008 
0.0212441 
0.0417426 
0.0337291 
0.0321407 
0.0253844 
0.00828265 
0.0208188 
0.0138254 
0.0263061 
0.0512268 
0.0353705 
0.0466994 
0.0295201 
0.0328147 
0.0184251 
0.0334965 
0.027155 
0.0248414 
0.00806773 
0.0226566 
0.0338818 
0.0370849 
0.0261143 
0.0438664 
0.0137682 
0.0258651 
0.0216433 
0.0106309 
0.0190597 
0.015236 
0.03015 
0.031857 
0.026196 
0.0188765 
0.0249389 
0.0501366 
0.016574 
0.0169366 
0.0201447 
0.0235256 
0.0282918 
0.00961755 
0.0248719 
0.00931467 
0.0247886 
0.0322422 
0.0122919 
0.0509729 
0.0237546 
0.0368752 
0.0275032 
0.0203355 
0.0301709 
0.0387895 
0.0337174 
0.0369271 
0.0289497 
0.043138 
0.00957215 
0.0357393 
0.00208139 
0.0379423 
0.0197343 
0.0500336 
0.041222 
0.0585692 
0.0248917 
0.0217933 
0.0146779 
0.0308266 
0.0445298 
0.0467669 
0.024045 
0.0187932 
0.0280935 
0.022471 
0.0167495 
0.0117442 
0.0185513 
0.0294698 
0.0156377 
0.0290374 
0.0472455 
0.0148703 
0.020449 
0.00498567 
0.00663783 
0.0250581 
0.0419613 
0.02279 
0.0187233 
0.0177151 
0.0434563 
0.0119983 
0.0531196 
0.0365508 
0.0332789 
0.0638263 
0.0236921 
0.0490136 
0.0288212 
0.0387328 
0.0216221 
0.0237403 
0.0441745 
0.0262687 
0.0368723 
0.0414442 
0.00263216 
0.0458211 
0.0388515 
0.0276517 
0.0554076 
0.0138751 
0.0272312 
0.0134451 
0.0218486 
0.0146406 
0.0494966 
0.0349271 
0.0139361 
0.021948 
0.036142 
0.0535261 
0.00626632 
0.0261243 
0.0285436 
0.037088 
0.0459127 
0.0423469 
0.0382003 
0.0264367 
0.0301892 
0.0126056 
0.0273317 
0.0197618 
0.0364297 
0.00603882 
0.018014 
0.0449115 
0.0107382 
0.010552 
0.0282229 
0.0183944 
0.0162009 
0.0495584 
0.0316596 
0.0295783 
0.0219529 
0.0346809 
0.0448684 
0.0408046 
0.0236265 
0.0444955 
0.0375754 
0.0204922 
0.0250161 
0.0283394 
0.0463858 
0.0381382 
0.0368799 
0.023335 
0.0208706 
0.0229614 
0.0324875 
0.0316753 
0.0262642 
0.0160022 
0.0230942 
0.00747918 
0.0138806 
0.0204368 
0.0252111 
0.0429536 
0.0347975 
0.0134579 
0.0340972 
0.0532361 
0.0215044 
0.0448522 
0.0293702 
0.0369523 
0.0291721 
0.0482313 
0.0632131 
0.00929623 
0.0245628 
0.029856 
0.0320663 
0.0266734 
0.0311267 
0.0334261 
0.0155554 
0.0276031 
0.00998722 
0.0256227 
0.020295 
0.0404533 
0.0123839 
0.0342961 
0.0449647 
0.0314118 
0.0405329 
0.0369669 
0.0291981 
0.0318077 
0.0188223 
0.0172731 
0.00674369 
0.0316539 
0.0146944 
0.0285498 
0.0288529 
0.0208246 
0.0169222 
0.0321112 
0.0194916 
0.0216866 
0.0181695 
0.0282911 
0.0338396 
0.0336624 
0.0139683 
0.0120544 
0.0303459 
0.0423858 
0.024888 
0.00980037 
0.0249998 
0.0411163 
0.0185592 
0.0157672 
0.015249 
0.0350516 
0.0195852 
0.0236389 
0.0239418 
0.0309148 
0.0180732 
0.0325532 
0.0352475 
0.0023317 
0.0133837 
0.0260015 
0.0247446 
0.0156809 
0.0323335 
0.0309865 
0.0245528 
0.0180033 
0.0265541 
0.0339168 
0.0289522 
0.0303637 
0.0439109 
0.0216579 
0.0283396 
0.0314013 
0.0134103 
0.0253395 
0.0378775 
0.0577378 
0.0314856 
0.0304784 
0.0247805 
0.00599416 
0.00545057 
0.0201117 
0.0381394 
0.0271938 
0.00845789 
0.021198 
0.0349288 
0.0333305 
0.0297242 
0.0368432 
0.023337 
0.0203067 
0.0218375 
0.00389158 
0.0125204 
0.00745253 
0.0195441 
0.0334032 
0.0450564 
0.00924855 
0.0124296 
0.0279377 
0.0225183 
0.0132806 
0.0262541 
0.0247967 
0.0308371 
0.0101829 
0.0200962 
0.0525743 
0.0220305 
0.0311916 
0.0171359 
0.0111795 
0.0244543 
0.0228128 
0.00780299 
0.0275684 
0.0349671 
0.0305884 
0.00892311 
0.0458758 
0.025532 
0.0454333 
0.00603387 
0.0315947 
0.0228027 
0.0211595 
0.0292472 
0.0433782 
0.0196691 
0.0549792 
0.0385119 
0.0333847 
0.025652 
0.0423924 
0.00955083 
0.00891388 
0.0295787 
0.0171504 
0.0204546 
0.0506282 
0.018549 
0.0244327 
0.0124132 
0.0168229 
0.0260164 
0.00779878 
0.0389435 
0.0176676 
0.0276025 
0.0242315 
0.0319829 
0.0260867 
0.0265089 
0.0245463 
0.0271972 
0.0392713 
0.0157154 
0.0414528 
0.0303616 
0.024501 
0.039646 
0.0614751 
0.0289814 
0.0315777 
0.0180944 
0.0251994 
0.0199637 
0.012935 
0.0250227 
0.0304104 
0.028312 
0.0188618 
0.0531372 
0.0560488 
0.0152812 
0.0399161 
0.0381581 
0.0344199 
0.0379351 
0.0269654 
0.0301085 
0.0545064 
0.0543794 
0.0522688 
0.0527389 
0.036676 
0.0209611 
0.0511116 
0.0205029 
0.0266227 
0.0509557 
0.015267 
0.0361006 
0.0196473 
0.0403878 
0.0209647 
0.0528515 
0.0262391 
0.0406084 
0.0167443 
0.030701 
0.0179486 
0.0200706 
0.0337055 
0.0455039 
0.017954 
0.0316876 
0.0396182 
0.0330747 
0.0397901 
0.0341528 
0.035623 
0.0164838 
0.0491116 
0.0671813 
0.0483052 
0.0280477 
0.0245525 
0.0657898 
0.0122863 
0.0406698 
0.0181681 
0.0656849 
0.0451617 
0.0398352 
0.062498 
0.0526429 
0.0484349 
0.0408112 
0.0400968 
0.00964231 
0.0236643 
0.0262493 
0.0556287 
0.0191456 
0.0329349 
0.0419126 
0.0408284 
0.0300074 
0.0274646 
0.0475789 
0.0415914 
0.0439718 
0.0360075 
0.0450636 
0.0119549 
0.0571859 
0.0200373 
0.0273732 
0.0433617 
0.0249819 
0.0445959 
0.0215397 
0.0194901 
0.0172505 
0.0154754 
0.0126592 
0.0313233 
0.0336592 
0.0275705 
0.0216906 
0.0356205 
0.0235669 
0.0295795 
0.0195277 
0.0435248 
0.0127959 
0.0263037 
0.0397966 
0.0104911 
0.0263823 
0.0269803 
0.0118387 
0.0293803 
0.021359 
0.0326759 
0.0300285 
0.0206537 
0.0220981 
0.0231285 
0.0185349 
0.0388645 
0.036153 
0.0351181 
0.0461958 
0.0332996 
0.0184735 
0.00672801 
0.0217352 
0.0210255 
0.0223581 
0.0198765 
0.0187999 
0.0194821 
0.0346763 
0.00928135 
0.0264754 
0.04239 
0.0172392 
0.0352691 
0.0100184 
0.0344371 
0.0432323 
0.0137539 
0.0276425 
0.0238099 
0.0197434 
0.0617627 
0.0576949 
0.0330608 
0.0224394 
0.0317218 
0.0350722 
0.0546132 
0.0324822 
0.00972916 
0.0225365 
0.0365429 
0.0136317 
0.0101532 
0.0374783 
0.0297944 
0.0297817 
0.048983 
0.00548199 
0.0327422 
0.034922 
0.0328039 
0.0265952 
0.0348872 
0.0205527 
0.0380331 
0.0305641 
0.0265271 
0.0189799 
0.027178 
0.0220614 
0.0119202 
0.0194092 
0.0247124 
0.0231208 
0.0176302 
0.0318708 
0.0219352 
0.0124039 
0.0230502 
0.0109326 
0.0302174 
0.0153082 
0.0278046 
0.014892 
0.0311727 
0.0387843 
0.036258 
0.0475914 
0.0354105 
0.026815 
0.0189977 
0.0127424 
0.0162521 
0.0474117 
0.0290848 
0.0423782 
0.0228058 
0.0263057 
0.00939795 
0.0304528 
0.0377591 
0.0580058 
0.0470879 
0.0160734 
0.0312241 
0.0306418 
0.0281011 
0.013818 
0.0336511 
0.0249665 
0.037287 
0.0260173 
0.0205451 
0.0142554 
0.0290742 
0.0341637 
0.0228556 
0.0608495 
0.0109383 
0.0222947 
0.0210105 
0.0266977 
0.0563617 
0.0561764 
0.020789 
0.0443945 
0.00578443 
0.0315403 
0.0318208 
0.0293162 
0.033614 
0.0194366 
0.0192462 
0.0412694 
0.01814 
0.0328209 
0.0165236 
0.0299936 
0.0248054 
0.0201056 
0.0346291 
0.0276522 
0.0226684 
0.0292534 
0.0311959 
0.0339053 
0.047946 
0.0322601 
0.0127333 
0.0159009 
0.0214915 
0.0169627 
0.00772158 
0.0143565 
0.0241931 
0.0404072 
0.0316515 
0.0386343 
0.0109983 
0.0244334 
0.00778145 
0.0186627 
0.0237912 
0.0586804 
0.026941 
0.0415553 
0.0181388 
0.014928 
0.0108437 
0.0292708 
0.0444728 
0.02211 
0.0283235 
0.0219491 
0.0201298 
0.0408753 
