ITEM: TIMESTEP
900
ITEM: NUMBER OF ATOMS
2048
ITEM: BOX BOUNDS pp pp pp
0 10.9855
0 10.9855
0 10.9855
ITEM: ATOMS c_displacement[4] 
0.0279658 
0.0380107 
0.033136 
0.0291052 
0.0339879 
0.0144416 
0.0145722 
0.0255195 
0.0303904 
0.0327274 
0.0362341 
0.0233196 
0.0145791 
0.0305539 
0.0542769 
0.0495178 
0.0290494 
0.0220749 
0.0366424 
0.0334156 
0.0361904 
0.0365346 
0.0460249 
0.00736652 
0.0529117 
0.0144472 
0.00472184 
0.0292104 
0.0171498 
0.03083 
0.0219573 
0.0285364 
0.0148491 
0.0173941 
0.014439 
0.0168764 
0.0263288 
0.0396554 
0.0213573 
0.0177725 
0.0353259 
0.0277829 
0.0400187 
0.0560763 
0.0442177 
0.0167947 
0.033522 
0.0347364 
0.0301902 
0.0628823 
0.036186 
0.0193864 
0.03697 
0.0500291 
0.021643 
0.0447352 
0.0343326 
0.0415546 
0.0225627 
0.0261311 
0.047851 
0.0295882 
0.0435791 
0.0462249 
0.0252967 
0.0226495 
0.0399235 
0.0296368 
0.00645602 
0.0356314 
0.049637 
0.0120676 
0.0340031 
0.0217586 
0.0406526 
0.042013 
0.0419872 
0.035576 
0.039067 
0.0483823 
0.0275166 
0.0459363 
0.0259546 
0.039337 
0.0512149 
0.0119887 
0.0201321 
0.0314955 
0.00659702 
0.0181032 
0.011944 
0.0250971 
0.0339118 
0.0164911 
0.0409504 
0.0130415 
0.0217446 
0.0239074 
0.0377672 
0.0358999 
0.0179363 
0.0330479 
0.0385782 
0.0485532 
0.0196572 
0.0204155 
0.0384363 
0.0322981 
0.0498328 
0.0626516 
0.0767102 
0.0279916 
0.0166649 
0.035522 
0.0175024 
0.0289862 
0.035016 
0.0307107 
0.0285903 
0.0239496 
0.0374431 
0.0433764 
0.0136911 
0.0461453 
0.0359321 
0.0301589 
0.0145799 
0.0258411 
0.0211188 
0.0353415 
0.0397654 
0.0256894 
0.0164248 
0.026835 
0.0395004 
0.0390329 
0.0359574 
0.0228089 
0.0262151 
0.0235563 
0.0109955 
0.0350499 
0.036971 
0.0299 
0.0468214 
0.0377406 
0.0230883 
0.0441552 
0.0415294 
0.033441 
0.0343506 
0.0347794 
0.00962265 
0.0340164 
0.0417271 
0.0220504 
0.0421264 
0.0273482 
0.0275168 
0.0292676 
0.0337837 
0.0304889 
0.0363788 
0.0197605 
0.0418409 
0.04146 
0.0345308 
0.0370093 
0.0166448 
0.032887 
0.0276763 
0.0373233 
0.0163749 
0.0199421 
0.0212186 
0.0523156 
0.0394618 
0.0138395 
0.0269453 
0.0475951 
0.0196696 
0.0167145 
0.0328003 
0.0540459 
0.0407817 
0.016385 
0.0195501 
0.0182262 
0.0189438 
0.0238734 
0.0427555 
0.0205321 
0.0212721 
0.0210729 
0.00882502 
0.0176742 
0.0285723 
0.0259843 
0.032649 
0.0270925 
0.014966 
0.0274999 
0.0230792 
0.0114494 
0.0338538 
0.024279 
0.0235918 
0.0355718 
0.025237 
0.0216954 
0.017103 
0.0143043 
0.0283637 
0.018773 
0.0359869 
0.030202 
0.0306425 
0.0109359 
0.02742 
0.0136391 
0.026497 
0.0126888 
0.0238802 
0.0195644 
0.0302833 
0.0108106 
0.0416217 
0.0166808 
0.0278021 
0.0284148 
0.0396644 
0.00591107 
0.045536 
0.0246887 
0.0175027 
0.019593 
0.0347936 
0.0472122 
0.0285219 
0.0105513 
0.0391147 
0.0349917 
0.0338481 
0.0285761 
0.021103 
0.0408796 
0.0337215 
0.0248218 
0.0197728 
0.0266549 
0.0258797 
0.032604 
0.0212131 
0.0346181 
0.0362096 
0.0261607 
0.0529796 
0.0213351 
0.0306175 
0.00885006 
0.0260166 
0.025921 
0.0172161 
0.0512128 
0.0411759 
0.0211218 
0.0457869 
0.0424962 
0.0266482 
0.0108885 
0.0191752 
0.0312227 
0.0242246 
0.0189883 
0.0293761 
0.01998 
0.0154866 
0.0198319 
0.0502467 
0.0367654 
0.0282675 
0.0354062 
0.0295504 
0.0216856 
0.0242659 
0.0203355 
0.035852 
0.0312616 
0.0125665 
0.0292631 
0.0151038 
0.0269298 
0.014484 
0.0315774 
0.0225792 
0.0245159 
0.0304464 
0.0247187 
0.0206816 
0.027538 
0.0261936 
0.0224428 
0.0326187 
0.0349487 
0.0310284 
0.0267887 
0.0430718 
0.0249039 
0.0570015 
0.0291806 
0.0356831 
0.0201901 
0.0191345 
0.0186241 
0.0186432 
0.0363158 
0.041633 
0.0173041 
0.0207986 
0.0134118 
0.00933686 
0.0158661 
0.0177346 
0.0456908 
0.0129817 
0.00899133 
0.0220155 
0.0164583 
0.0101394 
0.020858 
0.0242199 
0.0248232 
0.00940402 
0.0164911 
0.0237845 
0.0245007 
0.0121206 
0.014472 
0.0110718 
0.0434006 
0.028935 
0.0545796 
0.0284313 
0.0601566 
0.0333945 
0.0327258 
0.0229021 
0.0220114 
0.0197026 
0.0440761 
0.0304065 
0.0310315 
0.00515211 
0.0200678 
0.0294392 
0.0319998 
0.0388939 
0.0296114 
0.0260356 
0.0169571 
0.0208471 
0.0291334 
0.031449 
0.0363833 
0.0335242 
0.017685 
0.017252 
0.0273604 
0.00941988 
0.0441886 
0.040554 
0.0195399 
0.0261362 
0.0329082 
0.0341375 
0.0334673 
0.0293013 
0.0386329 
0.0318786 
0.0406973 
0.0202935 
0.0158162 
0.0304051 
0.0125074 
0.0189028 
0.0477305 
0.0478445 
0.0357638 
0.0193644 
0.0301789 
0.0213278 
0.0183407 
0.030938 
0.0243119 
0.0392094 
0.0339007 
0.0252278 
0.00853583 
0.00980378 
0.0221883 
0.0432572 
0.0447268 
0.0237174 
0.0184357 
0.0242926 
0.0133757 
0.0376935 
0.0215396 
0.0188201 
0.0361587 
0.0229997 
0.0184357 
0.0457494 
0.0127079 
0.00705439 
0.0348634 
0.0397226 
0.0549362 
0.0180665 
0.029603 
0.0242027 
0.026738 
0.0161845 
0.023066 
0.0266948 
0.0383202 
0.0148311 
0.0320139 
0.0325283 
0.0134646 
0.0170094 
0.0323931 
0.0256764 
0.0558947 
0.0263415 
0.0340481 
0.0223169 
0.0112883 
0.0159116 
0.0565226 
0.039607 
0.0205155 
0.0266725 
0.0126726 
0.016853 
0.0425538 
0.0495254 
0.0278891 
0.0254474 
0.0393121 
0.0399303 
0.0376283 
0.0253129 
0.0274092 
0.0438711 
0.0344928 
0.00760925 
0.015698 
0.0335955 
0.0286574 
0.03101 
0.0201847 
0.0179842 
0.0348238 
0.0167011 
0.0205751 
0.0503698 
0.0323719 
0.0304173 
0.0371637 
0.017078 
0.0202907 
0.03088 
0.0195436 
0.0208046 
0.0185238 
0.0314274 
0.0363158 
0.0419233 
0.00969037 
0.0364495 
0.0400169 
0.0191188 
0.0180758 
0.0462172 
0.0285615 
0.0397529 
0.0265059 
0.0165067 
0.020115 
0.0164977 
0.0214023 
0.0100284 
0.0408778 
0.0221362 
0.032015 
0.0150973 
0.0121672 
0.0266636 
0.0395216 
0.023154 
0.0299864 
0.00705658 
0.0151838 
0.018324 
0.0157284 
0.024192 
0.0230773 
0.0258661 
0.0426268 
0.0227348 
0.0162544 
0.0041346 
0.0218283 
0.00821306 
0.022193 
0.0195078 
0.0168945 
0.0168543 
0.0179845 
0.0394495 
0.0124877 
0.0315716 
0.0237434 
0.0299735 
0.0439014 
0.0347572 
0.03478 
0.0246584 
0.0047145 
0.0259316 
0.0414709 
0.011578 
0.0335084 
0.0290344 
0.0194439 
0.0264097 
0.0434351 
0.0309573 
0.00707983 
0.0356973 
0.0252092 
0.0250664 
0.03651 
0.0465335 
0.0153559 
0.0351349 
0.0225036 
0.014272 
0.0146155 
0.0364036 
0.0424352 
0.0169195 
0.0402103 
0.0362939 
0.035554 
0.0288932 
0.0452704 
0.0252519 
0.0144659 
0.0439995 
0.0224625 
0.0147269 
0.0353824 
0.0418991 
0.0201347 
0.0217067 
0.0395265 
0.0237179 
0.0267777 
0.0111164 
0.0163443 
0.0140327 
0.0333875 
0.0165229 
0.0112694 
0.0123746 
0.0380502 
0.0125011 
0.0491384 
0.0312037 
0.0388626 
0.0295377 
0.00995082 
0.0279708 
0.0193528 
0.0142269 
0.0437182 
0.0145693 
0.03166 
0.0209895 
0.0188864 
0.0233763 
0.0299031 
0.0173469 
0.0151085 
0.0109344 
0.0233249 
0.0346696 
0.0371765 
0.024042 
0.0277851 
0.0209012 
0.0368972 
0.0366992 
0.02777 
0.0141442 
0.0216007 
0.0409173 
0.0161773 
0.0441517 
0.0186426 
0.0176609 
0.011545 
0.0301201 
0.0226368 
0.0264317 
0.0175169 
0.0264671 
0.0172998 
0.0392704 
0.0409249 
0.028834 
0.0187352 
0.0306669 
0.0540474 
0.0480619 
0.0171349 
0.0642471 
0.0494453 
0.00459821 
0.0316371 
0.0245706 
0.00726338 
0.0238811 
0.0155914 
0.0461165 
0.0316039 
0.0262471 
0.0464538 
0.0580002 
0.0262017 
0.0337712 
0.0337822 
0.0279721 
0.0167412 
0.0229462 
0.0304105 
0.036575 
0.00896682 
0.0333511 
0.0253612 
0.0171681 
0.0269931 
0.0169112 
0.0391772 
0.0185649 
0.00998229 
0.0241842 
0.0311101 
0.0198703 
0.0206149 
0.0144506 
0.0439454 
0.0420709 
0.0462907 
0.0273707 
0.0108753 
0.005905 
0.0661642 
0.0193321 
0.0476793 
0.0207848 
0.0292368 
0.0274294 
0.0313894 
0.0199512 
0.0345402 
0.0305462 
0.0137366 
0.0288512 
0.0249091 
0.0324184 
0.036269 
0.0199725 
0.029976 
0.0200114 
0.0221546 
0.0111193 
0.0245129 
0.0352366 
0.0114891 
0.0224869 
0.0524478 
0.035171 
0.0169876 
0.0364049 
0.0324519 
0.037707 
0.0120449 
0.0178463 
0.0228454 
0.0352622 
0.0336855 
0.0168773 
0.0298208 
0.0372354 
0.0399817 
0.0607346 
0.0173044 
0.0228915 
0.00971589 
0.0291822 
0.0309003 
0.00678261 
0.0460852 
0.0236506 
0.00610385 
0.0301562 
0.0493461 
0.0483111 
0.0526365 
0.0335456 
0.0547572 
0.0438091 
0.0248611 
0.0338044 
0.0469763 
0.0464337 
0.0211821 
0.0141942 
0.032173 
0.00692736 
0.0288439 
0.0397269 
0.0234959 
0.0127462 
0.0186957 
0.0215397 
0.0229719 
0.0352229 
0.00705084 
0.0282033 
0.0224343 
0.0416187 
0.0242009 
0.0229417 
0.0154347 
0.0163725 
0.0203434 
0.0380098 
0.0120862 
0.0254018 
0.0314828 
0.0147527 
0.0218229 
0.0148542 
0.026086 
0.0395864 
0.0523822 
0.0505232 
0.0366574 
0.0245474 
0.0483439 
0.0333236 
0.018231 
0.014092 
0.036839 
0.0261178 
0.0318669 
0.0518686 
0.0204545 
0.0176857 
0.0345598 
0.0205939 
0.0215579 
0.024521 
0.0249846 
0.0224664 
0.0228477 
0.0268476 
0.0215396 
0.0351187 
0.0181777 
0.0191323 
0.029328 
0.0179349 
0.0224495 
0.029884 
0.0169671 
0.0367939 
0.0516426 
0.032226 
0.0391365 
0.022334 
0.0284683 
0.0339393 
0.0328661 
0.0141965 
0.0515288 
0.0264356 
0.0448824 
0.0320298 
0.0499033 
0.0282624 
0.0188995 
0.044854 
0.0251343 
0.0258641 
0.0319513 
0.0299432 
0.00411197 
0.014321 
0.0251136 
0.012888 
0.0250808 
0.0130217 
0.0176999 
0.0237389 
0.027481 
0.0242118 
0.0368934 
0.0145864 
0.0163222 
0.0290422 
0.0219813 
0.0327409 
0.0252742 
0.0321581 
0.0345333 
0.0214923 
0.0346753 
0.0291274 
0.0245319 
0.0553353 
0.0187183 
0.0194352 
0.0367893 
0.0307973 
0.0165398 
0.0176849 
0.0291756 
0.0287859 
0.025806 
0.0193178 
0.0274124 
0.0358711 
0.0337863 
0.0298972 
0.0537705 
0.0295683 
0.0363177 
0.014795 
0.0048524 
0.0209061 
0.0124566 
0.0228846 
0.00964203 
0.0280501 
0.0388956 
0.0212513 
0.0144511 
0.0291326 
0.0284429 
0.0116018 
0.0546339 
0.0155718 
0.0291679 
0.0429984 
0.00613748 
0.0222589 
0.0225351 
0.0408588 
0.0177162 
0.00700106 
0.0251185 
0.0385268 
0.0217929 
0.0217342 
0.0293896 
0.0255666 
0.0237544 
0.02489 
0.0503826 
0.0302862 
0.0104307 
0.0234027 
0.0263507 
0.0169962 
0.0398607 
0.0227269 
0.0420256 
0.0343123 
0.0358982 
0.0197793 
0.0206911 
0.0241824 
0.0278787 
0.00859459 
0.0467731 
0.0117839 
0.0246104 
0.0493067 
0.0138061 
0.0380999 
0.0322951 
0.0556097 
0.0195718 
0.0341158 
0.0256276 
0.00620522 
0.0244077 
0.0193538 
0.00608592 
0.0256542 
0.0329939 
0.0341895 
0.024171 
0.0446103 
0.0250736 
0.0106577 
0.0274477 
0.0288051 
0.00922964 
0.0292421 
0.0141262 
0.0387226 
0.0493892 
0.0313053 
0.00966987 
0.030808 
0.0152764 
0.0321725 
0.0314581 
0.0390811 
0.0250888 
0.0713091 
0.0188877 
0.0189938 
0.0280178 
0.0150287 
0.00870401 
0.025261 
0.0415087 
0.0227166 
0.034513 
0.0317358 
0.0187586 
0.0078901 
0.0224351 
0.0117576 
0.0201748 
0.0317727 
0.031016 
0.0237007 
0.0229399 
0.0307084 
0.0204496 
0.0355533 
0.0144934 
0.031888 
0.0559847 
0.0432677 
0.0488471 
0.0193501 
0.0428975 
0.0377475 
0.0246844 
0.0248806 
0.0530343 
0.0173006 
0.042104 
0.0271596 
0.0111294 
0.0252859 
0.033864 
0.0316607 
0.0110019 
0.0206495 
0.0112457 
0.0384992 
0.0123895 
0.0204632 
0.0292879 
0.0457754 
0.031195 
0.0217736 
0.0200421 
0.0277192 
0.0246 
0.0221945 
0.0247576 
0.013924 
0.0251754 
0.0223694 
0.0324951 
0.0167327 
0.0159836 
0.0307024 
0.0339222 
0.0140164 
0.0126061 
0.0156949 
0.0357458 
0.0161626 
0.022534 
0.0427095 
0.0221473 
0.0192738 
0.0252531 
0.0390707 
0.0506436 
0.0299825 
0.00690163 
0.020607 
0.0373793 
0.036928 
0.0359815 
0.0580708 
0.0269297 
0.0174139 
0.0266803 
0.0264803 
0.0270534 
0.0392774 
0.0359806 
0.0348675 
0.047473 
0.0119057 
0.0429694 
0.0434596 
0.0157544 
0.0364648 
0.058301 
0.0189475 
0.0267821 
0.0306258 
0.0167128 
0.0181968 
0.0473356 
0.0428395 
0.0217748 
0.029766 
0.0282518 
0.0289137 
0.0168481 
0.0143266 
0.00640356 
0.0167728 
0.0331858 
0.025766 
0.0179855 
0.0282462 
0.0330153 
0.0354358 
0.0154825 
0.0265859 
0.0529774 
0.0468865 
0.0217233 
0.0336964 
0.0451503 
0.0314596 
0.0177194 
0.0309725 
0.0475375 
0.0237674 
0.0325463 
0.0308129 
0.0230885 
0.0290746 
0.0258517 
0.00271278 
0.0138399 
0.0335163 
0.029022 
0.02558 
0.0480698 
0.0276721 
0.021569 
0.0270105 
0.0526983 
0.0402503 
0.0314158 
0.0155468 
0.0451052 
0.0316422 
0.0158263 
0.0375338 
0.0281697 
0.0429318 
0.0170002 
0.0382684 
0.0267009 
0.0339201 
0.0252384 
0.0167152 
0.0314789 
0.0258892 
0.00787838 
0.0258705 
0.0307663 
0.0104213 
0.0280567 
0.0154437 
0.0140486 
0.0143028 
0.0164456 
0.0179528 
0.0187792 
0.0415022 
0.0224664 
0.0153918 
0.0173731 
0.010694 
0.020305 
0.0304609 
0.0366198 
0.0174567 
0.034995 
0.0366733 
0.0245992 
0.0364064 
0.0389642 
0.0175064 
0.0514202 
0.0209581 
0.0273236 
0.029372 
0.0172235 
0.0260408 
0.0285811 
0.0141557 
0.0246736 
0.0454394 
0.0278138 
0.0200004 
0.0118221 
0.0142288 
0.0388396 
0.0238408 
0.0453905 
0.0175059 
0.0209524 
0.0188753 
0.0377032 
0.0360462 
0.0526173 
0.0236002 
0.0292889 
0.0222436 
0.0439567 
0.0268417 
0.0191426 
0.0420416 
0.0259436 
0.0517376 
0.00634358 
0.0195677 
0.0194705 
0.040994 
0.017337 
0.0252033 
0.0141626 
0.0179314 
0.0302495 
0.0138532 
0.0140028 
0.0222792 
0.0243384 
0.020089 
0.0295203 
0.0368563 
0.0264552 
0.0310028 
0.0193381 
0.0407765 
0.0290324 
0.0258273 
0.00726471 
0.0237888 
0.049931 
0.0269003 
0.0217312 
0.0221809 
0.0254017 
0.0161738 
0.0168651 
0.0201483 
0.0134674 
0.0123028 
0.0159038 
0.0425716 
0.0205841 
0.0381161 
0.0175034 
0.0266627 
0.0458207 
0.0164996 
0.0308857 
0.0202452 
0.0330542 
0.00485389 
0.0246758 
0.0240883 
0.0334371 
0.026217 
0.0214408 
0.0203138 
0.0267204 
0.0150874 
0.0225829 
0.0243359 
0.0206194 
0.0245498 
0.0160497 
0.0295394 
0.0364672 
0.0239946 
0.03743 
0.0500588 
0.0293875 
0.0269866 
0.00879307 
0.0463579 
0.0166609 
0.0579683 
0.0487847 
0.0190039 
0.0300815 
0.0195837 
0.0232308 
0.0220894 
0.0226545 
0.00874697 
0.0147005 
0.0165892 
0.0183093 
0.0197237 
0.0237265 
0.0382084 
0.0083294 
0.0174593 
0.0179519 
0.0493709 
0.0185339 
0.0156501 
0.0165308 
0.0509945 
0.037047 
0.039186 
0.0150976 
0.0152767 
0.0292681 
0.0124005 
0.0163446 
0.0407507 
0.0180434 
0.0234248 
0.0220536 
0.0204072 
0.0462502 
0.0271298 
0.0130222 
0.0365326 
0.0371647 
0.0476462 
0.0296143 
0.0355636 
0.0232536 
0.0287451 
0.0135172 
0.0312335 
0.0238455 
0.0306109 
0.0137508 
0.0402465 
0.0343314 
0.0236068 
0.0276918 
0.071054 
0.0351358 
0.0296841 
0.0344262 
0.0196818 
0.0261729 
0.0211813 
0.0354725 
0.0164466 
0.0402636 
0.0182745 
0.0241321 
0.0218296 
0.0166071 
0.0220569 
0.0313112 
0.0264101 
0.0244348 
0.0325039 
0.042746 
0.049522 
0.0411694 
0.0497004 
0.044524 
0.0201707 
0.026343 
0.0112072 
0.037069 
0.0344668 
0.0306185 
0.0289487 
0.0353274 
0.0113725 
0.0163349 
0.0329356 
0.0132331 
0.0123804 
0.0389119 
0.0303136 
0.0261094 
0.0279592 
0.0165829 
0.0385959 
0.0438918 
0.0501388 
0.0466147 
0.0165807 
0.0345458 
0.0132334 
0.0196077 
0.0311649 
0.0232086 
0.0192714 
0.0120702 
0.0105275 
0.0356556 
0.0283149 
0.0348117 
0.0635614 
0.044752 
0.0257561 
0.0484989 
0.0187162 
0.0339329 
0.0289973 
0.0226089 
0.0197604 
0.0116271 
0.0118615 
0.0144812 
0.0211845 
0.0226323 
0.0285897 
0.013518 
0.0360854 
0.0291792 
0.0412006 
0.0376724 
0.0249915 
0.0324416 
0.0413077 
0.0148902 
0.0316395 
0.0292172 
0.0552492 
0.00979345 
0.0162853 
0.0174529 
0.00835805 
0.0217 
0.0165298 
0.0409519 
0.0221861 
0.012267 
0.0275733 
0.0475646 
0.0137963 
0.0371436 
0.0210538 
0.0205923 
0.0286753 
0.0291623 
0.0159327 
0.0260608 
0.0210706 
0.00662517 
0.0294686 
0.0267433 
0.0253913 
0.0262148 
0.0214307 
0.0263438 
0.0187248 
0.0367863 
0.0329498 
0.0468829 
0.0379359 
0.0210644 
0.0253463 
0.0499064 
0.0274874 
0.0423548 
0.0144437 
0.045314 
0.0227996 
0.0304117 
0.020869 
0.0189657 
0.0295616 
0.0272425 
0.0227875 
0.0278687 
0.0200059 
0.0135011 
0.0217457 
0.0372235 
0.0107414 
0.0503447 
0.0480804 
0.0237804 
0.014762 
0.0309107 
0.0211999 
0.0220022 
0.0337986 
0.032303 
0.0109544 
0.0177343 
0.0277953 
0.0154965 
0.0323546 
0.0495546 
0.0253043 
0.0215673 
0.0324081 
0.0412362 
0.0297211 
0.0187888 
0.0358965 
0.0406706 
0.0336153 
0.0337623 
0.0164745 
0.0381413 
0.0211217 
0.0321254 
0.0319764 
0.0388706 
0.0327595 
0.0321103 
0.0320366 
0.0232145 
0.0181457 
0.0381538 
0.013585 
0.0172956 
0.0283714 
0.0331692 
0.00359935 
0.0189633 
0.0369341 
0.028676 
0.0427123 
0.0591441 
0.0257611 
0.00958565 
0.0205503 
0.034102 
0.0202966 
0.0281521 
0.0391851 
0.00940107 
0.0220564 
0.0148152 
0.0320646 
0.0153761 
0.035857 
0.0405637 
0.0202763 
0.0210968 
0.0270286 
0.0198686 
0.0300987 
0.0263113 
0.0390795 
0.0285279 
0.0411129 
0.0308852 
0.045198 
0.0067559 
0.0425269 
0.0230562 
0.0387109 
0.0335897 
0.0081788 
0.0377439 
0.0378608 
0.0346069 
0.0340645 
0.0611987 
0.0313386 
0.0168871 
0.0419245 
0.0291831 
0.0279944 
0.0193016 
0.0318638 
0.0219227 
0.0158253 
0.0308099 
0.0363546 
0.03697 
0.0276124 
0.0252368 
0.0310179 
0.0211955 
0.028494 
0.0291971 
0.0295859 
0.0384391 
0.0215644 
0.0456271 
0.0210607 
0.0363296 
0.0317457 
0.0243952 
0.0437153 
0.0170197 
0.0285789 
0.0208423 
0.0410236 
0.0424082 
0.0198469 
0.0306098 
0.0373318 
0.0227958 
0.0370953 
0.0358014 
0.0122532 
0.0153101 
0.0200679 
0.0716581 
0.0308251 
0.0310414 
0.0184393 
0.0334102 
0.0326798 
0.0519672 
0.0329071 
0.0202906 
0.0237805 
0.00787605 
0.0140442 
0.0136109 
0.0412754 
0.0469672 
0.021783 
0.0467438 
0.0330378 
0.0128617 
0.0390211 
0.0346566 
0.0129464 
0.0209965 
0.0233378 
0.024199 
0.0115868 
0.0206234 
0.0157217 
0.0227448 
0.0164483 
0.0208397 
0.0168022 
0.0218643 
0.0328766 
0.0374843 
0.0128716 
0.00709042 
0.0200155 
0.0473355 
0.0169591 
0.0186377 
0.0340046 
0.0334665 
0.0350315 
0.0303791 
0.0165123 
0.0227792 
0.0231539 
0.0126024 
0.00614304 
0.0653945 
0.0291603 
0.0252986 
0.0606716 
0.0443738 
0.0389994 
0.0268994 
0.0224766 
0.0118921 
0.0362739 
0.0512907 
0.0120756 
0.0165577 
0.0476906 
0.00889226 
0.0217972 
0.0132071 
0.0332234 
0.0103231 
0.0213945 
0.0397907 
0.0353394 
0.049654 
0.0301228 
0.0255782 
0.0478039 
0.00908221 
0.0363343 
0.0255804 
0.0143148 
0.0126589 
0.00606194 
0.0101559 
0.0436523 
0.0312331 
0.017121 
0.044997 
0.0344499 
0.0405405 
0.0268594 
0.0235078 
0.0324197 
0.0143921 
0.0210421 
0.0121708 
0.0345692 
0.0112315 
0.0222867 
0.0371729 
0.0243182 
0.0411484 
0.0311031 
0.0398688 
0.0259286 
0.0241807 
0.0336322 
0.0160333 
0.0189619 
0.0294752 
0.0207481 
0.0142217 
0.0289981 
0.0276188 
0.0208555 
0.0255596 
0.020221 
0.0128877 
0.0145262 
0.044472 
0.00382503 
0.0155864 
0.017098 
0.0209296 
0.0197038 
0.0180721 
0.0241113 
0.0405643 
0.0331975 
0.0091656 
0.0113177 
0.019102 
0.0244963 
0.0431004 
0.0263931 
0.00835968 
0.010527 
0.0140601 
0.0221369 
0.0438977 
0.0219846 
0.0316938 
0.0651663 
0.0284316 
0.0341531 
0.0205967 
0.0251542 
0.0516297 
0.0203995 
0.0540897 
0.01944 
0.00691086 
0.0105307 
0.0236397 
0.0142487 
0.0293371 
0.038857 
0.0355771 
0.04703 
0.00779754 
0.0222913 
0.0225089 
0.0289457 
0.0161023 
0.0293851 
0.0405878 
0.0396564 
0.0238102 
0.0329443 
0.0284324 
0.0174772 
0.0423123 
0.021767 
0.0256546 
0.0393432 
0.0310996 
0.0245936 
0.0339532 
0.0175571 
0.0209158 
0.0558084 
0.0345362 
0.0201846 
0.0229501 
0.0510532 
0.0266273 
0.0285292 
0.0357956 
0.0261645 
0.0408022 
0.0140481 
0.0577666 
0.0250689 
0.0385395 
0.0287133 
0.0457696 
0.0218788 
0.0266978 
0.0218475 
0.0244205 
0.0393217 
0.0352307 
0.0235873 
0.0405534 
0.0176156 
0.0406994 
0.0352356 
0.0284702 
0.0267756 
0.0284049 
0.0129061 
0.0293391 
0.0253051 
0.0312912 
0.0177052 
0.0243252 
0.0197037 
0.0154875 
0.0334013 
0.0380849 
0.0171323 
0.0259227 
0.0408666 
0.0386039 
0.0248362 
0.0368929 
0.0331615 
0.0165117 
0.0291648 
0.0374982 
0.068733 
0.0611516 
0.0405696 
0.0247103 
0.0212067 
0.0456939 
0.0317669 
0.0067986 
0.0379673 
0.0360433 
0.044065 
0.0405344 
0.0101376 
0.0403448 
0.0372703 
0.021846 
0.0318656 
0.0152951 
0.0399186 
0.0196559 
0.0469531 
0.0358261 
0.0358461 
0.0369171 
0.0320899 
0.0392482 
0.0169468 
0.0171966 
0.0402136 
0.0206001 
0.0517338 
0.0209996 
0.0600104 
0.0225428 
0.0409053 
0.0244572 
0.0231706 
0.0346901 
0.0510312 
0.0434793 
0.0389677 
0.0290293 
0.0311155 
0.0316237 
0.0639983 
0.022661 
0.0150914 
0.0193147 
0.0130565 
0.0270824 
0.0237889 
0.0254425 
0.0405901 
0.0222537 
0.0274597 
0.015412 
0.018581 
0.0247876 
0.0264027 
0.0207922 
0.0349206 
0.0289699 
0.00661952 
0.0261595 
0.0198999 
0.023493 
0.0170082 
0.0275429 
0.0347653 
0.0314849 
0.0301496 
0.0172788 
0.0497676 
0.0399357 
0.0490203 
0.0416144 
0.0316117 
0.0153221 
0.0270558 
0.0276943 
0.0236212 
0.0123846 
0.0379011 
0.0338099 
0.0301961 
0.025951 
0.0148605 
0.0220054 
0.0165868 
0.00963055 
0.0178512 
0.0203775 
0.0151875 
0.0291963 
0.0330945 
0.0327075 
0.0363421 
0.0220688 
0.022379 
0.0127596 
0.017724 
0.0383326 
0.0361718 
0.0318616 
0.0262161 
0.0210245 
0.0320636 
0.0185163 
0.030395 
0.0540549 
0.0248326 
0.0447449 
0.032495 
0.0373536 
0.00840246 
0.00528081 
0.0242729 
0.0288654 
0.0169165 
0.0428278 
0.050139 
0.0386728 
0.0119014 
0.0284631 
0.0555295 
0.0199037 
0.0168325 
0.0433691 
0.0171508 
0.0336526 
0.0296163 
0.00707174 
0.0412745 
0.0412744 
0.0215015 
0.0166627 
0.0343417 
0.00838252 
0.0152712 
0.0447214 
0.0336084 
0.021825 
0.0283123 
0.0250566 
0.0339801 
0.0293165 
0.0222336 
0.0267498 
0.0315581 
0.0172008 
0.0265157 
0.0236529 
0.0245295 
0.0192495 
0.0484776 
0.0335137 
0.0472901 
0.0233107 
0.0112348 
0.0180836 
0.0372582 
0.0481603 
0.0383179 
0.0373181 
0.0541359 
0.0447227 
0.0495537 
0.0572813 
0.0265853 
0.0362644 
0.0217501 
0.0275775 
0.0258432 
0.0131734 
0.0262244 
0.0370146 
0.0396411 
0.037859 
0.022018 
0.0236004 
0.0105956 
0.0415234 
0.0470709 
0.0170023 
0.0400821 
0.0296674 
0.0145498 
0.00583074 
0.0353122 
0.0226333 
0.0159924 
0.0288437 
0.0182805 
0.0121032 
0.0316805 
0.0237628 
0.0254155 
0.0490026 
0.0313838 
0.0216052 
0.0449952 
0.00751624 
0.0161291 
0.0331009 
0.0397736 
0.0236189 
0.0292334 
0.0391459 
0.0285403 
0.0175445 
0.0211691 
0.0271629 
0.0224735 
0.0394634 
0.0529349 
0.0334615 
0.0226968 
0.0236074 
0.0250244 
0.0210472 
0.0335748 
0.0181948 
0.0192868 
0.0444685 
0.0402894 
0.0361119 
0.0358349 
0.0137808 
0.0288827 
0.0320441 
0.0206677 
0.0298207 
0.0440408 
0.0059256 
0.0263592 
0.0324103 
0.0167702 
0.029139 
0.0401718 
0.0370544 
0.0078189 
0.0306527 
0.0153678 
0.045598 
0.0262088 
0.0238317 
0.0287975 
0.0370019 
0.0207301 
0.0149825 
0.0224092 
0.0157659 
0.00818639 
0.0145829 
0.0438662 
0.04267 
0.0328285 
0.0238745 
0.0189119 
0.0351566 
0.0452826 
0.0216496 
0.0287633 
0.0271004 
0.00663902 
0.0331315 
0.0310796 
0.0245821 
0.0420037 
0.0205508 
0.0171366 
0.0305107 
0.034075 
0.042271 
0.0263282 
0.0309795 
0.016411 
0.0266107 
