ITEM: TIMESTEP
600
ITEM: NUMBER OF ATOMS
2048
ITEM: BOX BOUNDS pp pp pp
0 10.9855
0 10.9855
0 10.9855
ITEM: ATOMS c_displacement[4] 
0.0244691 
0.0465482 
0.023686 
0.0124845 
0.0443034 
0.0294174 
0.0239937 
0.031847 
0.0253378 
0.0258134 
0.010881 
0.0278083 
0.027158 
0.0281476 
0.0224983 
0.0406036 
0.0435023 
0.0388383 
0.0168618 
0.02312 
0.0109228 
0.0363769 
0.0129391 
0.0470789 
0.0182255 
0.0320906 
0.0401998 
0.0524445 
0.0225497 
0.0195847 
0.0118393 
0.0175728 
0.0131438 
0.020398 
0.0154864 
0.0326685 
0.00535248 
0.0110565 
0.0297186 
0.0257218 
0.0403256 
0.017106 
0.0216189 
0.0243309 
0.0117066 
0.00497168 
0.0438827 
0.0278662 
0.0233847 
0.0328854 
0.0313324 
0.0262716 
0.0118595 
0.024479 
0.0222821 
0.0270662 
0.0342245 
0.0507488 
0.0121087 
0.0319011 
0.0298727 
0.029553 
0.0336765 
0.0170908 
0.0294835 
0.029368 
0.0287048 
0.0131644 
0.0197301 
0.0222463 
0.029848 
0.0336036 
0.0294043 
0.0340107 
0.0133711 
0.0236599 
0.0463605 
0.0441585 
0.0274921 
0.054583 
0.0395374 
0.0465357 
0.0377927 
0.0347433 
0.0192497 
0.0381287 
0.016111 
0.0131754 
0.0241745 
0.0107393 
0.00726402 
0.0504809 
0.0144292 
0.0248999 
0.032827 
0.0335703 
0.0387582 
0.0289086 
0.0190104 
0.0226313 
0.0203072 
0.0318119 
0.0343322 
0.0208654 
0.0242086 
0.0287958 
0.00904789 
0.0351425 
0.0305646 
0.02153 
0.0272339 
0.0265909 
0.051356 
0.0263316 
0.0295959 
0.037328 
0.0165693 
0.0205738 
0.0361186 
0.0298456 
0.0296787 
0.0325728 
0.0149989 
0.0305886 
0.0285231 
0.0309631 
0.0207941 
0.0112453 
0.0313302 
0.0418504 
0.0221085 
0.0294989 
0.0180604 
0.0239777 
0.0205198 
0.0302559 
0.0329511 
0.0279804 
0.0539853 
0.00875884 
0.0259578 
0.0326507 
0.0643467 
0.0176735 
0.0462031 
0.065811 
0.034638 
0.0267253 
0.031466 
0.0397765 
0.0294697 
0.0341951 
0.0273433 
0.0224249 
0.0304997 
0.0120494 
0.0255191 
0.0584812 
0.0132458 
0.022757 
0.0110075 
0.0151594 
0.0107152 
0.0335692 
0.0159042 
0.0490537 
0.0252356 
0.0276619 
0.0553453 
0.0426399 
0.031724 
0.0328114 
0.0185639 
0.0233938 
0.0148457 
0.0172839 
0.0375558 
0.0358581 
0.00890623 
0.0115424 
0.0277623 
0.0379238 
0.0207389 
0.0389711 
0.0372146 
0.0522805 
0.0178908 
0.0366692 
0.0745455 
0.0080948 
0.0223154 
0.0486946 
0.032622 
0.023807 
0.0237032 
0.0100621 
0.0264994 
0.00533967 
0.049042 
0.0240864 
0.0341599 
0.0202602 
0.0164312 
0.0360031 
0.00635014 
0.0146397 
0.0166179 
0.0359624 
0.0174489 
0.0427503 
0.039012 
0.0439939 
0.018194 
0.0274524 
0.0404704 
0.0222714 
0.0122901 
0.0380376 
0.00814998 
0.0304236 
0.0302573 
0.0194292 
0.0357913 
0.0237596 
0.0279869 
0.026449 
0.0387875 
0.0103728 
0.0230657 
0.0255078 
0.0266236 
0.0104895 
0.0215507 
0.00818625 
0.0122877 
0.00978634 
0.0193687 
0.0227879 
0.0348903 
0.0382431 
0.025771 
0.0250384 
0.0324023 
0.0240351 
0.037685 
0.0304443 
0.013425 
0.0267195 
0.0350826 
0.0288368 
0.0299189 
0.034944 
0.0396548 
0.0433405 
0.042857 
0.0323819 
0.0620716 
0.0719142 
0.0470309 
0.0310246 
0.0407783 
0.0147586 
0.0160235 
0.0345571 
0.00491219 
0.0503746 
0.0039943 
0.0216556 
0.0334063 
0.0388143 
0.0202925 
0.0425251 
0.0333812 
0.0290829 
0.0248247 
0.0337384 
0.0142571 
0.0422387 
0.0387038 
0.0272615 
0.0187532 
0.0215538 
0.053954 
0.0176742 
0.0448486 
0.0126224 
0.0239339 
0.0275655 
0.0230835 
0.0238188 
0.015279 
0.0299613 
0.0204091 
0.0154045 
0.00899251 
0.0274102 
0.0291968 
0.0170753 
0.0224814 
0.0295967 
0.0133506 
0.0209635 
0.0245361 
0.0260844 
0.020732 
0.0193376 
0.0104459 
0.00777685 
0.0179368 
0.0379441 
0.0280287 
0.0319094 
0.00774486 
0.0176911 
0.0337741 
0.0311893 
0.0144332 
0.0506683 
0.0159401 
0.0308987 
0.033968 
0.0349091 
0.0212525 
0.0369973 
0.0254583 
0.0352921 
0.0161323 
0.0077755 
0.00841447 
0.00611967 
0.0118953 
0.0386463 
0.0098922 
0.022569 
0.0273773 
0.0266299 
0.0161559 
0.0122704 
0.0588273 
0.0239055 
0.0197915 
0.0436238 
0.00933392 
0.0306229 
0.0202608 
0.0264866 
0.0101855 
0.0224672 
0.0151433 
0.0415179 
0.031703 
0.0428771 
0.0222068 
0.0195061 
0.0314245 
0.0262213 
0.0259827 
0.0390422 
0.0271679 
0.0227417 
0.0384026 
0.0140197 
0.0360828 
0.019452 
0.0104221 
0.0498025 
0.0168787 
0.0296965 
0.00934825 
0.0252828 
0.0167688 
0.0260755 
0.0170129 
0.0177472 
0.0330818 
0.0260492 
0.0291287 
0.0341326 
0.0140165 
0.0222326 
0.0104448 
0.0428464 
0.0242017 
0.0168729 
0.0208418 
0.0225796 
0.0304144 
0.0176766 
0.014378 
0.0271839 
0.0118096 
0.0214517 
0.0221602 
0.0145807 
0.0218093 
0.0153439 
0.0299856 
0.00590617 
0.028794 
0.0223124 
0.0241172 
0.0277494 
0.0225892 
0.0240873 
0.02427 
0.0324677 
0.0326202 
0.0087785 
0.0318307 
0.0251156 
0.0258972 
0.0104124 
0.0264758 
0.0354367 
0.0129744 
0.0320323 
0.0180058 
0.0368969 
0.0162391 
0.0308878 
0.0452603 
0.022377 
0.0262158 
0.0182198 
0.0302938 
0.0318617 
0.0234127 
0.0218108 
0.0177037 
0.0209365 
0.0209184 
0.0199659 
0.0175219 
0.0191534 
0.0418635 
0.0121382 
0.0336193 
0.0242385 
0.0145799 
0.0115594 
0.0227488 
0.027696 
0.0291268 
0.029416 
0.0129331 
0.0276852 
0.0162699 
0.0200013 
0.0200122 
0.0315691 
0.0192215 
0.0106552 
0.0324549 
0.0144891 
0.0305461 
0.0279252 
0.0213479 
0.0300441 
0.0210182 
0.0103699 
0.0352874 
0.0127383 
0.0297069 
0.0112527 
0.0240024 
0.0162833 
0.0359401 
0.0217669 
0.018649 
0.0366077 
0.0123474 
0.0505239 
0.0222124 
0.0575931 
0.0135228 
0.0155208 
0.025781 
0.047168 
0.0230388 
0.0439593 
0.0511951 
0.0290708 
0.0198439 
0.0210418 
0.0159073 
0.03452 
0.0224505 
0.0443976 
0.0261356 
0.0321947 
0.0341132 
0.0153703 
0.0230524 
0.0069943 
0.0162468 
0.0385499 
0.0305188 
0.0384002 
0.0226751 
0.0281094 
0.016039 
0.0446296 
0.0469385 
0.0234453 
0.0176117 
0.0279451 
0.0281817 
0.0670637 
0.0390957 
0.027281 
0.0290241 
0.0203898 
0.0394289 
0.0505344 
0.0326026 
0.053435 
0.0336782 
0.00902698 
0.00830251 
0.0364084 
0.0389277 
0.0227276 
0.0086538 
0.0119634 
0.0261133 
0.0213704 
0.0304768 
0.0318225 
0.0216407 
0.0330573 
0.0201737 
0.0220253 
0.0210901 
0.0407046 
0.014258 
0.0332299 
0.0174541 
0.0203497 
0.0279352 
0.0217098 
0.0309391 
0.0258929 
0.0449969 
0.0257975 
0.0221814 
0.0215036 
0.039166 
0.0365855 
0.0297191 
0.0148555 
0.0187293 
0.0270339 
0.0366282 
0.0175798 
0.0310155 
0.00585246 
0.0403948 
0.0394863 
0.01792 
0.0284088 
0.0108534 
0.0395867 
0.0242469 
0.0277009 
0.0198181 
0.0223228 
0.0212039 
0.0325655 
0.0284146 
0.0172352 
0.0165547 
0.0179997 
0.0286314 
0.0418036 
0.0162327 
0.0686446 
0.0249584 
0.0207424 
0.0215453 
0.0348747 
0.0332387 
0.015241 
0.039756 
0.0230636 
0.0493003 
0.0231785 
0.0241217 
0.0240249 
0.0209336 
0.0319766 
0.0245766 
0.0305549 
0.0110684 
0.0118542 
0.0306187 
0.0251003 
0.0324384 
0.0244143 
0.026572 
0.0477106 
0.0132311 
0.0206863 
0.0266218 
0.0163265 
0.0374947 
0.0436515 
0.0121765 
0.0444433 
0.00920543 
0.0386905 
0.0258868 
0.0135563 
0.0326342 
0.0469959 
0.0174794 
0.0237809 
0.0216801 
0.0134731 
0.0294153 
0.00899618 
0.017542 
0.0361682 
0.0040153 
0.0265991 
0.00869288 
0.04613 
0.00688964 
0.0201018 
0.0360818 
0.0210415 
0.0426501 
0.0172472 
0.0290984 
0.0348242 
0.02946 
0.0524661 
0.0349547 
0.0166622 
0.0253644 
0.0522874 
0.0250256 
0.0129826 
0.0347043 
0.0230948 
0.0355094 
0.0135487 
0.0288645 
0.0389439 
0.0316013 
0.0321539 
0.0138342 
0.0303418 
0.00960682 
0.0123275 
0.0145083 
0.0274563 
0.00996852 
0.014503 
0.0167528 
0.00926516 
0.0338585 
0.0199411 
0.0241523 
0.0411342 
0.0137825 
0.041938 
0.0278203 
0.012288 
0.0400913 
0.0291562 
0.0179479 
0.0126933 
0.0237526 
0.0200471 
0.0185649 
0.0373761 
0.00665807 
0.0084428 
0.0200881 
0.0153049 
0.0277746 
0.0197994 
0.0340968 
0.0458339 
0.0410216 
0.0291728 
0.0197348 
0.0185844 
0.0535984 
0.0186446 
0.0289363 
0.0213683 
0.0608612 
0.027421 
0.0204273 
0.0285179 
0.0185491 
0.0176484 
0.02287 
0.0114005 
0.0263653 
0.0336176 
0.0444872 
0.0342171 
0.0309475 
0.0357982 
0.0137147 
0.0479243 
0.0212644 
0.0713756 
0.0663174 
0.0330283 
0.022478 
0.0245081 
0.0350672 
0.025437 
0.0241995 
0.024708 
0.0408656 
0.0208957 
0.0223582 
0.0375339 
0.0312141 
0.0357184 
0.0384601 
0.0337881 
0.0206415 
0.0498884 
0.0152936 
0.0345769 
0.0298379 
0.0225203 
0.0319733 
0.0267972 
0.0181425 
0.0408357 
0.0165328 
0.0341765 
0.0233046 
0.0317633 
0.0306872 
0.0400431 
0.0373186 
0.0361471 
0.0141934 
0.00788644 
0.0252087 
0.00937025 
0.0246176 
0.0135476 
0.0352837 
0.0184556 
0.039043 
0.0138146 
0.0111423 
0.0077731 
0.0293132 
0.0336173 
0.0460642 
0.0119307 
0.0331914 
0.0163813 
0.0209829 
0.0355036 
0.0192477 
0.0322446 
0.0235567 
0.00333351 
0.0354402 
0.0505004 
0.031548 
0.0485114 
0.0313587 
0.0153319 
0.0204948 
0.0500268 
0.0318654 
0.0192963 
0.0315824 
0.030006 
0.0146413 
0.0467757 
0.026742 
0.0212202 
0.0325749 
0.0168654 
0.0232495 
0.012949 
0.0193744 
0.0361841 
0.0248745 
0.0125086 
0.0155284 
0.0163351 
0.0290663 
0.0468258 
0.0353019 
0.0175067 
0.021239 
0.0175105 
0.0247041 
0.0293699 
0.0283921 
0.0191891 
0.0256417 
0.00949461 
0.0129239 
0.0291819 
0.00904503 
0.038199 
0.0617733 
0.0421276 
0.0460701 
0.024132 
0.0361693 
0.0403243 
0.0234983 
0.0412742 
0.0321267 
0.0345728 
0.0294343 
0.0405482 
0.0414275 
0.0173179 
0.0299729 
0.0337681 
0.0472191 
0.0226987 
0.0418279 
0.0121435 
0.0126697 
0.0338871 
0.0370565 
0.0209219 
0.03251 
0.0138028 
0.0266713 
0.0169182 
0.0233468 
0.0352314 
0.0365688 
0.012248 
0.0236996 
0.0299617 
0.0115635 
0.0343023 
0.0254958 
0.0260957 
0.0445327 
0.0380204 
0.0676982 
0.0266039 
0.0213982 
0.02867 
0.0129503 
0.022306 
0.0229003 
0.0072115 
0.0257134 
0.0247836 
0.0294234 
0.0293901 
0.0150222 
0.0145735 
0.0201437 
0.0233882 
0.0230693 
0.0146913 
0.008061 
0.0449912 
0.0395173 
0.0109089 
0.0117421 
0.0198037 
0.0149626 
0.0163827 
0.0240296 
0.00905296 
0.0206208 
0.0403605 
0.0268253 
0.0177927 
0.0243338 
0.0422925 
0.0204013 
0.0178922 
0.047066 
0.0149397 
0.0279907 
0.0367597 
0.0231254 
0.0369616 
0.0194248 
0.0403646 
0.0399486 
0.00690755 
0.0155784 
0.0161226 
0.0329374 
0.0135531 
0.0164485 
0.0250248 
0.011699 
0.0265025 
0.0426696 
0.0373142 
0.0234345 
0.0381413 
0.0117665 
0.0171497 
0.0364084 
0.026229 
0.0189778 
0.022553 
0.0422526 
0.0327274 
0.0163724 
0.013125 
0.0193047 
0.0220911 
0.0349324 
0.029358 
0.032862 
0.0173523 
0.0355871 
0.013125 
0.0338493 
0.00875395 
0.023208 
0.0227327 
0.0080125 
0.0269541 
0.0241611 
0.0314679 
0.0267343 
0.0122351 
0.0291341 
0.018281 
0.0102314 
0.0137939 
0.00636809 
0.0143576 
0.0196212 
0.0419827 
0.0222321 
0.0207908 
0.0158039 
0.0458157 
0.0355381 
0.0462161 
0.0335131 
0.00498068 
0.0357373 
0.0299392 
0.0215834 
0.00927351 
0.010204 
0.00646707 
0.00936159 
0.0337411 
0.0327497 
0.0196176 
0.0226044 
0.0143858 
0.0294544 
0.0171711 
0.0167277 
0.0116411 
0.0193903 
0.0226515 
0.0267638 
0.0103509 
0.0186388 
0.0393127 
0.0133638 
0.017541 
0.0258121 
0.0270867 
0.0350534 
0.0339045 
0.0277581 
0.00638105 
0.0267275 
0.0128398 
0.0323906 
0.0252143 
0.0214505 
0.0172043 
0.0248734 
0.0158801 
0.0490528 
0.01228 
0.0209883 
0.0233028 
0.00763528 
0.0320336 
0.004047 
0.0331291 
0.0539419 
0.029254 
0.0205804 
0.0303685 
0.0209324 
0.0252755 
0.0201996 
0.041213 
0.0221278 
0.0177385 
0.0217134 
0.0183696 
0.0254955 
0.0295123 
0.0107052 
0.022479 
0.0256472 
0.0295335 
0.0244842 
0.0368352 
0.0377981 
0.0174144 
0.0486939 
0.0280242 
0.0302243 
0.0119747 
0.0603657 
0.0135523 
0.0336258 
0.0140959 
0.00616369 
0.0364904 
0.0225832 
0.0451423 
0.0336307 
0.0362626 
0.0358806 
0.0299528 
0.0419518 
0.0305258 
0.0433114 
0.00358399 
0.0389073 
0.0385762 
0.0135015 
0.0301696 
0.0106187 
0.0244956 
0.0182664 
0.0236225 
0.01239 
0.0147104 
0.030697 
0.0227972 
0.0278402 
0.0376121 
0.0582136 
0.0381917 
0.0231008 
0.0292959 
0.044932 
0.0286973 
0.0547132 
0.0407551 
0.0299667 
0.0238451 
0.0213033 
0.0352369 
0.0403955 
0.0204673 
0.0204024 
0.0211286 
0.0235401 
0.00932378 
0.0218524 
0.014289 
0.0166522 
0.0271319 
0.0156637 
0.0246104 
0.0157971 
0.0300485 
0.0133229 
0.0507649 
0.0638297 
0.0426778 
0.0413342 
0.0292605 
0.00816071 
0.0436011 
0.0230865 
0.0133507 
0.0306947 
0.0305748 
0.0297805 
0.0415844 
0.0255013 
0.0478913 
0.0342859 
0.0318516 
0.0249453 
0.0276222 
0.0254677 
0.0227081 
0.0455547 
0.0352006 
0.0378887 
0.0481421 
0.0265348 
0.0293789 
0.0472645 
0.0364668 
0.0477907 
0.0301484 
0.0568027 
0.0153779 
0.0223339 
0.0325311 
0.0308523 
0.0426274 
0.0347389 
0.0289748 
0.0265518 
0.0286665 
0.034203 
0.0156421 
0.0364207 
0.0281503 
0.0229178 
0.0112067 
0.0149311 
0.0482702 
0.0428404 
0.0341681 
0.0315931 
0.0564524 
0.0436191 
0.0440911 
0.0293489 
0.0360172 
0.0127276 
0.01884 
0.0388761 
0.0219021 
0.032628 
0.0197743 
0.0227166 
0.012427 
0.0567435 
0.0121181 
0.0193706 
0.011278 
0.0208661 
0.0303412 
0.0172142 
0.0174236 
0.0422845 
0.0409585 
0.0345802 
0.0547814 
0.0441554 
0.0103079 
0.036447 
0.0547414 
0.0351796 
0.0301893 
0.0211858 
0.0380335 
0.0389113 
0.0160387 
0.0290515 
0.0199195 
0.0398604 
0.0486046 
0.0367532 
0.0208812 
0.0301114 
0.00541398 
0.0247573 
0.021096 
0.0482805 
0.0260569 
0.0308305 
0.0249221 
0.0268642 
0.0192511 
0.0420712 
0.0287181 
0.0326243 
0.0205 
0.0274591 
0.0415025 
0.0280487 
0.0384259 
0.0151433 
0.0463368 
0.0505626 
0.0287729 
0.0634225 
0.0379717 
0.0117355 
0.0266797 
0.0226974 
0.0421598 
0.0246955 
0.0219474 
0.0200876 
0.0139573 
0.0422852 
0.0181464 
0.0393108 
0.0345531 
0.0408748 
0.0458314 
0.0235835 
0.0106042 
0.04246 
0.0301086 
0.0465923 
0.0256737 
0.0188426 
0.031319 
0.0152509 
0.014007 
0.0401928 
0.0331516 
0.0254595 
0.0105854 
0.0159484 
0.0273025 
0.0232783 
0.0281586 
0.0173918 
0.0163149 
0.0402388 
0.00630392 
0.0311196 
0.00795598 
0.0324157 
0.0143398 
0.0115139 
0.0283859 
0.0220489 
0.0291553 
0.0104934 
0.0218952 
0.00289547 
0.027456 
0.0259514 
0.0493425 
0.0191524 
0.0302321 
0.0313 
0.0252351 
0.0272415 
0.0248996 
0.0176945 
0.0215886 
0.0275418 
0.0117425 
0.0409674 
0.00562283 
0.0282177 
0.0138947 
0.0224104 
0.0322725 
0.0392045 
0.0361025 
0.0433707 
0.0231904 
0.0226319 
0.0342135 
0.035467 
0.0189166 
0.0446727 
0.0118473 
0.0318719 
0.00490691 
0.0547467 
0.0160737 
0.0178813 
0.0137523 
0.0359597 
0.020825 
0.0240039 
0.0207989 
0.0236544 
0.0287886 
0.0171739 
0.00766486 
0.0152246 
0.0305153 
0.00987043 
0.0321165 
0.0407322 
0.0463246 
0.0121648 
0.0163706 
0.0187294 
0.034626 
0.0358773 
0.0326584 
0.0152415 
0.0209407 
0.0323535 
0.0386321 
0.00600913 
0.0204109 
0.0369575 
0.0174781 
0.0350088 
0.0155132 
0.0107726 
0.0199524 
0.0256597 
0.0297896 
0.037556 
0.0156983 
0.0413271 
0.0145913 
0.0160035 
0.0278038 
0.0307884 
0.0145298 
0.0361116 
0.0271058 
0.0436391 
0.0386108 
0.0232618 
0.0485815 
0.0242485 
0.0360748 
0.03356 
0.037673 
0.0391408 
0.0426406 
0.0189012 
0.0390887 
0.0144955 
0.0198709 
0.034174 
0.0328701 
0.0466681 
0.0586572 
0.0204349 
0.0184648 
0.014652 
0.0262491 
0.0261466 
0.0194509 
0.0406131 
0.0132972 
0.0284996 
0.0145575 
0.0297703 
0.0177207 
0.015177 
0.0580336 
0.019317 
0.0478072 
0.0217857 
0.0306605 
0.0376519 
0.0140095 
0.0296817 
0.0284777 
0.0264687 
0.0179746 
0.0225652 
0.0201417 
0.0144408 
0.0274309 
0.0293276 
0.0451171 
0.0174795 
0.0395793 
0.0214162 
0.0356632 
0.0247397 
0.0251817 
0.00857151 
0.0130477 
0.0261825 
0.050524 
0.0408044 
0.0348634 
0.0246427 
0.0407333 
0.036687 
0.0184227 
0.0333332 
0.0280154 
0.0219598 
0.045381 
0.0292435 
0.0366442 
0.0278577 
0.0208336 
0.032443 
0.00970539 
0.0506213 
0.049947 
0.0420411 
0.0234561 
0.026036 
0.0350261 
0.013466 
0.0400359 
0.0221732 
0.0235151 
0.0515899 
0.00963266 
0.0103558 
0.038699 
0.00851943 
0.015795 
0.0251133 
0.0340563 
0.00996151 
0.0180201 
0.0345747 
0.040389 
0.0225968 
0.0148887 
0.0268958 
0.0145537 
0.0352381 
0.0577085 
0.0315603 
0.0280189 
0.0520656 
0.0271064 
0.0200372 
0.0281316 
0.0151071 
0.0298938 
0.00655576 
0.0163741 
0.0181053 
0.0448747 
0.0242238 
0.0121228 
0.0512821 
0.0274888 
0.0458155 
0.0219722 
0.0231692 
0.0429081 
0.0319778 
0.0241306 
0.0241612 
0.0354772 
0.0249215 
0.0165229 
0.0420198 
0.0224253 
0.0468677 
0.0250348 
0.0313942 
0.0155379 
0.0136906 
0.00616388 
0.0253602 
0.0301248 
0.01795 
0.0202413 
0.021822 
0.0185201 
0.0408227 
0.0271669 
0.0307806 
0.0315724 
0.0411656 
0.0242646 
0.0240213 
0.021987 
0.0303026 
0.0326838 
0.00611547 
0.0224874 
0.0256543 
0.0143026 
0.0228965 
0.00828124 
0.0318925 
0.0239018 
0.0154404 
0.0420368 
0.0341467 
0.0162653 
0.0314464 
0.0158351 
0.0135521 
0.00538459 
0.0470071 
0.0138251 
0.0240055 
0.0142302 
0.0543629 
0.0401978 
0.0230905 
0.0305612 
0.0336462 
0.0246392 
0.0221333 
0.0342527 
0.0237825 
0.0356339 
0.0445242 
0.0425179 
0.00988418 
0.0350766 
0.0225534 
0.0101398 
0.0373644 
0.0146177 
0.0130307 
0.0235105 
0.0425219 
0.0181456 
0.0410671 
0.00691163 
0.0206324 
0.0235039 
0.042677 
0.0207646 
0.0256091 
0.0235496 
0.00984399 
0.0149498 
0.0239907 
0.033703 
0.0274592 
0.0185751 
0.0404981 
0.0158487 
0.0328766 
0.0236982 
0.0314703 
0.0194243 
0.0231194 
0.024774 
0.0369349 
0.0169846 
0.02715 
0.0360375 
0.0333842 
0.0267673 
0.0320583 
0.0478614 
0.0222495 
0.0370645 
0.0245607 
0.0391418 
0.0350068 
0.0221176 
0.030928 
0.0294719 
0.0335594 
0.0366647 
0.0280131 
0.0354651 
0.0165369 
0.04861 
0.0180843 
0.0378141 
0.0539272 
0.0320694 
0.0183398 
0.0329189 
0.0253762 
0.0147857 
0.0217043 
0.0222734 
0.0248208 
0.036459 
0.0271296 
0.0482607 
0.0271778 
0.0267955 
0.0422467 
0.0302781 
0.025276 
0.028517 
0.0241978 
0.0256126 
0.0316748 
0.0325834 
0.0231198 
0.0206017 
0.0227941 
0.0152491 
0.0417127 
0.0263068 
0.0460267 
0.0265155 
0.0380015 
0.0412631 
0.0411015 
0.0416744 
0.0219331 
0.00968479 
0.0357121 
0.0193139 
0.0329567 
0.0461325 
0.0177123 
0.0234565 
0.0244265 
0.0420412 
0.0335803 
0.019286 
0.0186316 
0.0255925 
0.0282993 
0.0353469 
0.030641 
0.0418685 
0.0408162 
0.0151385 
0.0264215 
0.0169014 
0.0310978 
0.0120756 
0.0181492 
0.0257658 
0.0215779 
0.04185 
0.0352206 
0.01636 
0.0401671 
0.0329429 
0.0187751 
0.047258 
0.0551017 
0.0384969 
0.0179526 
0.0523991 
0.021337 
0.0364681 
0.0359399 
0.021808 
0.0383291 
0.0308059 
0.0381096 
0.0646903 
0.0164532 
0.0321869 
0.0281931 
0.0350874 
0.0510931 
0.0201275 
0.0227681 
0.0397401 
0.0489907 
0.0479878 
0.0367529 
0.0379724 
0.0214037 
0.0302104 
0.0193795 
0.0226802 
0.0253535 
0.00711508 
0.0291271 
0.0353836 
0.0124602 
0.0200769 
0.0360571 
0.00891557 
0.0132137 
0.0256725 
0.0122715 
0.0170126 
0.0181111 
0.0368265 
0.0208803 
0.0211728 
0.026737 
0.0353269 
0.0157737 
0.0163203 
0.043535 
0.0400245 
0.024768 
0.0095124 
0.0161489 
0.0551311 
0.034687 
0.0404829 
0.0259797 
0.00491017 
0.0293746 
0.0130332 
0.0180415 
0.0362617 
0.0282543 
0.0205904 
0.028726 
0.04792 
0.0189741 
0.0340861 
0.0484982 
0.0234628 
0.0172299 
0.0339991 
0.0308163 
0.0290803 
0.0152741 
0.0313168 
0.0272393 
0.00798201 
0.0454528 
0.0441054 
0.034567 
0.0358227 
0.0551592 
0.0232598 
0.0622236 
0.0214005 
0.0255775 
0.0313253 
0.0151145 
0.00761803 
0.0265259 
0.0164255 
0.0289038 
0.0289801 
0.0199812 
0.0264313 
0.015517 
0.031281 
0.0151578 
0.0267207 
0.00705696 
0.0514155 
0.0139958 
0.0155489 
0.0269369 
0.0221956 
0.0165402 
0.0147921 
0.0190293 
0.0215209 
0.0140973 
0.025038 
0.0429612 
0.0301585 
0.0382757 
0.0122192 
0.0353109 
0.0376411 
0.030236 
0.0180823 
0.0302585 
0.0110498 
0.0239388 
0.0133615 
0.0257225 
0.0189181 
0.0318059 
0.0554006 
0.0201331 
0.0133462 
0.011224 
0.026707 
0.0140281 
0.00902103 
0.0270279 
0.019089 
0.0515633 
0.0147393 
0.0117893 
0.0365596 
0.0337949 
0.0193547 
0.0217828 
0.0252568 
0.0194339 
0.0229918 
0.0199179 
0.0262844 
0.0241791 
0.0107346 
0.0284744 
0.00776586 
0.0281201 
0.00473939 
0.0233243 
0.0228765 
0.0240314 
0.00737657 
0.0182016 
0.0109097 
0.019624 
0.0540923 
0.0354245 
0.0265559 
0.0141811 
0.0473723 
0.0383256 
0.0298403 
0.0290995 
0.0307246 
0.0454079 
0.0192718 
0.044743 
0.00610203 
0.0194451 
0.0104243 
0.0201749 
0.0230945 
0.0357444 
0.0312401 
0.0195803 
0.0175018 
0.0195644 
0.0460064 
0.036965 
0.0158029 
0.0302075 
0.0196366 
0.0157432 
0.0257711 
0.0153085 
0.03734 
0.0232702 
0.0426778 
0.017222 
0.00924492 
0.0328585 
0.0172448 
0.00623294 
0.0265188 
0.0550363 
0.0294819 
0.0328631 
0.0139651 
0.0341373 
0.0195649 
0.0262174 
0.0316681 
0.025673 
0.0444701 
0.034515 
0.0316782 
0.0203211 
0.0278038 
0.0273363 
0.044513 
0.0373049 
0.035128 
0.0230776 
0.0240266 
0.0307071 
0.0447254 
0.0172703 
0.0533074 
0.0392744 
0.045726 
0.0547121 
0.043533 
0.0186849 
0.020109 
0.0226861 
0.0272717 
0.0318441 
0.0309482 
0.0359747 
0.0305195 
0.0219478 
0.0313105 
0.00470349 
0.030971 
0.0200305 
0.00917668 
0.027398 
0.0185774 
0.0312 
0.0166833 
0.0375123 
0.0239987 
0.0398121 
0.0303261 
0.0447056 
0.0342632 
0.0421561 
0.0300775 
0.0365321 
0.0114675 
0.0478572 
0.0406778 
0.0481775 
0.0290811 
0.0246468 
0.0387818 
0.0148774 
0.0241301 
0.0260229 
0.0240737 
0.0139528 
0.0212327 
0.0198763 
0.00589199 
0.0231019 
0.0128842 
0.0280277 
0.031564 
0.0182591 
0.056318 
0.024853 
0.044436 
0.0226828 
0.0516996 
0.0473441 
0.0374121 
0.0429112 
0.0338808 
0.0355823 
0.0228022 
0.0164133 
0.0445204 
0.0492577 
0.0401075 
0.0527304 
0.040858 
0.0310608 
0.0485737 
0.00554764 
0.010862 
0.0194883 
0.035838 
0.0367787 
0.0287434 
0.0241808 
0.0326951 
0.0398904 
0.0104934 
0.0138819 
0.00828357 
0.0365756 
0.0268581 
0.0354634 
0.0196531 
0.0415077 
0.0304872 
0.0349002 
0.0254431 
0.028147 
0.0135004 
0.0306926 
0.0219253 
0.0228602 
0.00653972 
0.0212632 
0.0274862 
0.0483472 
0.0167143 
0.0407595 
0.0335565 
0.0470003 
0.0389585 
0.0186872 
0.0517758 
0.0250902 
0.0270981 
0.0285833 
0.0506648 
0.0208211 
0.04086 
0.0313355 
0.0174089 
0.0378619 
0.0332153 
0.0368872 
0.0153962 
0.011738 
0.0113731 
0.0138132 
0.0390049 
0.0412513 
0.0164827 
0.0269437 
0.0328632 
0.0442735 
0.0499149 
0.0277327 
0.0282682 
0.0308302 
0.023435 
0.0252768 
0.0302844 
0.0391673 
0.0363474 
0.0128293 
0.0111618 
0.0387451 
0.0213598 
0.0253698 
0.0180984 
0.0268795 
0.0367098 
0.018435 
0.0415313 
0.0380977 
0.0437642 
0.00653313 
0.0480447 
0.0127442 
0.0197799 
0.0317924 
0.0345436 
0.0536542 
0.0163748 
0.0119936 
0.0423303 
0.0358946 
0.0098756 
0.0104487 
0.0217754 
0.0364534 
0.0485726 
0.03727 
0.00486271 
0.00634898 
0.0189342 
0.0388352 
0.0334661 
0.0231125 
0.0193181 
0.0252663 
0.0356743 
0.0500081 
0.0120109 
0.023097 
0.0142887 
0.0148923 
0.026668 
0.0297359 
0.0276857 
0.0106529 
0.0275561 
0.0540432 
0.0320314 
0.0384453 
0.0270086 
0.0382505 
0.01301 
0.0174367 
0.00943936 
