ITEM: TIMESTEP
400
ITEM: NUMBER OF ATOMS
2048
ITEM: BOX BOUNDS pp pp pp
0 10.9855
0 10.9855
0 10.9855
ITEM: ATOMS c_displacement[4] 
0.00864345 
0.0228232 
0.0365432 
0.0314637 
0.0408476 
0.0213768 
0.0247358 
0.0254997 
0.0300797 
0.0328298 
0.0346335 
0.0129357 
0.0227223 
0.0391645 
0.0220554 
0.0279705 
0.0342396 
0.0335604 
0.0123402 
0.0350237 
0.0486448 
0.00956125 
0.0236939 
0.0526053 
0.0209376 
0.0299916 
0.0209569 
0.0309082 
0.0209193 
0.0243753 
0.017244 
0.0280885 
0.0108812 
0.0407344 
0.0296211 
0.0233025 
0.0424978 
0.0155175 
0.0232845 
0.0100957 
0.0214553 
0.014378 
0.0215182 
0.0234444 
0.0499174 
0.0304868 
0.0181149 
0.0280361 
0.0378544 
0.00951562 
0.0311567 
0.0140576 
0.0291145 
0.0206706 
0.0135242 
0.027891 
0.0378774 
0.0396265 
0.0214123 
0.01587 
0.0321724 
0.0216655 
0.0196914 
0.0209381 
0.0258925 
0.0202839 
0.00713414 
0.0183806 
0.0242701 
0.021964 
0.0187291 
0.0281676 
0.0266159 
0.0311068 
0.0454242 
0.0171848 
0.0177765 
0.0311994 
0.0439406 
0.0248031 
0.0270101 
0.021617 
0.0289104 
0.00799076 
0.019072 
0.0228111 
0.0323167 
0.00762716 
0.0153614 
0.0267356 
0.0388132 
0.0439763 
0.0360299 
0.032002 
0.0136185 
0.0549429 
0.0426198 
0.012577 
0.039616 
0.0191244 
0.0387852 
0.0561539 
0.0346438 
0.0128497 
0.0416021 
0.0359512 
0.0263592 
0.028927 
0.0228677 
0.0292103 
0.0366792 
0.0188838 
0.0119887 
0.0260892 
0.0332737 
0.0309451 
0.04135 
0.0429445 
0.0292278 
0.0370102 
0.0227448 
0.0278924 
0.0198178 
0.0282663 
0.03563 
0.0303353 
0.0254828 
0.0369854 
0.00721221 
0.0316873 
0.0387068 
0.00354092 
0.0378405 
0.00162674 
0.0263568 
0.0343336 
0.0556494 
0.0151501 
0.032958 
0.0300199 
0.0561504 
0.0283664 
0.0423184 
0.0272432 
0.0112773 
0.0397446 
0.0153157 
0.0350557 
0.0278013 
0.0348281 
0.024327 
0.0348731 
0.0231295 
0.031858 
0.0232809 
0.0276008 
0.0473448 
0.0209577 
0.0305572 
0.00669385 
0.0132367 
0.0122079 
0.035406 
0.0402952 
0.0317963 
0.0513801 
0.0391342 
0.0267486 
0.00984999 
0.027074 
0.0306156 
0.0351083 
0.0402728 
0.0315122 
0.0624703 
0.0287799 
0.0413092 
0.0361031 
0.027202 
0.0130531 
0.0253364 
0.0101046 
0.0249668 
0.0104862 
0.0281761 
0.0316728 
0.0536528 
0.0133634 
0.0251624 
0.0262455 
0.023361 
0.0334786 
0.0377386 
0.0381126 
0.0133264 
0.0234727 
0.0192841 
0.0177527 
0.0296873 
0.0147754 
0.0374775 
0.012174 
0.0555732 
0.0183299 
0.0254213 
0.0131804 
0.0277527 
0.0191434 
0.0167083 
0.0125787 
0.0183733 
0.0110267 
0.0124995 
0.031274 
0.0275407 
0.0137042 
0.0291447 
0.0190961 
0.012239 
0.0285434 
0.0430708 
0.0316671 
0.0263756 
0.0164558 
0.0348002 
0.0343354 
0.0209756 
0.0341282 
0.0318047 
0.0325531 
0.0172303 
0.01851 
0.00941598 
0.0164747 
0.0281045 
0.0416581 
0.0146433 
0.0208268 
0.05407 
0.0489711 
0.03475 
0.0392216 
0.020417 
0.0116459 
0.0498612 
0.0150176 
0.0268867 
0.0260463 
0.0426957 
0.0174354 
0.0433897 
0.025081 
0.0171357 
0.0287759 
0.0302132 
0.0173896 
0.034017 
0.0383411 
0.036838 
0.0320804 
0.0361095 
0.0222235 
0.0310422 
0.0278619 
0.0286708 
0.0289376 
0.0338772 
0.0248016 
0.0277334 
0.0342123 
0.0201191 
0.0204644 
0.0233936 
0.0282125 
0.023124 
0.0224437 
0.0175583 
0.0127305 
0.0421706 
0.0334574 
0.0278555 
0.0307928 
0.0290244 
0.0413195 
0.0396444 
0.0612537 
0.0193887 
0.0170783 
0.0235935 
0.010985 
0.0486944 
0.0316914 
0.0137211 
0.0446686 
0.0400936 
0.0187155 
0.0287824 
0.0252516 
0.0362041 
0.0209563 
0.0169529 
0.0124605 
0.0255485 
0.0200633 
0.0225224 
0.0336034 
0.0301031 
0.0328369 
0.0273339 
0.0281741 
0.0393983 
0.0244664 
0.0126578 
0.00875627 
0.00592776 
0.0141775 
0.0277855 
0.0202733 
0.0328657 
0.01851 
0.0422158 
0.0238613 
0.0215994 
0.0293766 
0.0252137 
0.0391771 
0.016649 
0.0146326 
0.032119 
0.0364021 
0.00236298 
0.0320143 
0.0221577 
0.0151813 
0.026187 
0.0285424 
0.0423876 
0.0143871 
0.0528431 
0.0141464 
0.0359927 
0.0174157 
0.0374487 
0.00948523 
0.00972337 
0.0249806 
0.0305287 
0.0294452 
0.0194061 
0.0291846 
0.0171622 
0.04277 
0.00759515 
0.0323709 
0.0166133 
0.0290076 
0.0279677 
0.0389149 
0.0148383 
0.0191689 
0.0313757 
0.039771 
0.0235214 
0.0173118 
0.00752381 
0.050247 
0.00537361 
0.0572158 
0.0204235 
0.0299036 
0.021628 
0.020878 
0.0254212 
0.0317934 
0.0260115 
0.0329433 
0.0165485 
0.0256041 
0.00870653 
0.0225165 
0.0213814 
0.0356313 
0.0323943 
0.0404474 
0.0391433 
0.0294703 
0.033904 
0.0124205 
0.0253674 
0.0369853 
0.0186681 
0.0219485 
0.0308841 
0.0358902 
0.0272718 
0.0436511 
0.0401671 
0.0289333 
0.0367229 
0.0344571 
0.015665 
0.0191535 
0.0352288 
0.0139595 
0.0351802 
0.0301411 
0.0203516 
0.0105267 
0.0427956 
0.0241124 
0.0562406 
0.0191635 
0.0219928 
0.0529616 
0.0328918 
0.0380193 
0.0297187 
0.0118401 
0.0192046 
0.0226646 
0.0513914 
0.0144752 
0.0173368 
0.047895 
0.0233794 
0.0465236 
0.0188107 
0.0135569 
0.00612322 
0.0217156 
0.028979 
0.0201235 
0.0157391 
0.0331543 
0.0310771 
0.028153 
0.0262244 
0.0264614 
0.0386374 
0.00695438 
0.0327321 
0.0257305 
0.0194209 
0.028844 
0.0513222 
0.027675 
0.0472994 
0.0141081 
0.0380092 
0.022465 
0.0149398 
0.0329766 
0.029748 
0.0333838 
0.0250865 
0.0389342 
0.0244189 
0.0254978 
0.019102 
0.0292762 
0.00475645 
0.0609462 
0.0361598 
0.0291051 
0.0263521 
0.0262594 
0.0192174 
0.00858368 
0.0304187 
0.0236625 
0.0390514 
0.0212898 
0.0280491 
0.00855146 
0.0235285 
0.042431 
0.0259558 
0.0472353 
0.0129481 
0.0181991 
0.0117629 
0.0306 
0.0452012 
0.0278584 
0.017912 
0.0260183 
0.0469859 
0.0314962 
0.033028 
0.0134734 
0.0219227 
0.0270561 
0.00948015 
0.013656 
0.0299292 
0.0275054 
0.0312309 
0.0169593 
0.0405905 
0.0575008 
0.0272973 
0.0168543 
0.0382482 
0.0593714 
0.019643 
0.0181878 
0.020923 
0.0387396 
0.00720829 
0.0438116 
0.0137358 
0.0264078 
0.0224295 
0.0273644 
0.0170524 
0.0386176 
0.0314331 
0.0116971 
0.0147101 
0.0209713 
0.0155035 
0.0377969 
0.0524557 
0.040644 
0.0371662 
0.0226214 
0.0139228 
0.0157652 
0.0418666 
0.00528997 
0.0147751 
0.0200983 
0.0149342 
0.0522646 
0.0302806 
0.0303694 
0.0274554 
0.025543 
0.0125856 
0.0176891 
0.0431344 
0.00427931 
0.0148455 
0.0401806 
0.0445913 
0.0349048 
0.0157939 
0.0643353 
0.0357398 
0.0297444 
0.0388867 
0.0413664 
0.031288 
0.0266457 
0.0200622 
0.0132986 
0.00612899 
0.0260891 
0.0277088 
0.0160024 
0.010946 
0.0270843 
0.0174747 
0.0223319 
0.0168031 
0.0134548 
0.00884834 
0.0220151 
0.0410112 
0.0149261 
0.0335587 
0.0125447 
0.0284943 
0.0213836 
0.0457411 
0.0445061 
0.0117062 
0.0229034 
0.0386715 
0.0192789 
0.0237364 
0.0178161 
0.0153625 
0.0242173 
0.0278895 
0.0141055 
0.0168678 
0.0321212 
0.0148849 
0.0185266 
0.021119 
0.0274892 
0.0320219 
0.020225 
0.0319863 
0.0205292 
0.0292655 
0.0339669 
0.0132668 
0.0220201 
0.0226959 
0.0205048 
0.0226488 
0.0243352 
0.0128975 
0.0270436 
0.0106067 
0.026759 
0.0185466 
0.0553429 
0.0406682 
0.0562137 
0.0155633 
0.0216202 
0.0365206 
0.0314474 
0.020925 
0.020853 
0.00793031 
0.0273576 
0.00741619 
0.0204197 
0.0224588 
0.0309137 
0.0291927 
0.0177204 
0.0210373 
0.0242678 
0.0418983 
0.0316389 
0.0279779 
0.0321713 
0.0268721 
0.0182465 
0.0275861 
0.0283105 
0.0459862 
0.0196494 
0.026755 
0.0282094 
0.0196221 
0.0646619 
0.0217907 
0.0247896 
0.0398485 
0.0444468 
0.0481408 
0.033014 
0.0240296 
0.0242259 
0.0310355 
0.0225173 
0.0294959 
0.0371581 
0.0311839 
0.0301453 
0.0501992 
0.0401185 
0.0380248 
0.0198095 
0.0208423 
0.0309976 
0.019513 
0.0260105 
0.0225155 
0.0339186 
0.0176947 
0.0218868 
0.0310251 
0.0307965 
0.0441354 
0.0130619 
0.0249792 
0.0448998 
0.0337674 
0.020691 
0.031281 
0.0232674 
0.0188861 
0.015901 
0.01514 
0.0256684 
0.0199946 
0.0278353 
0.0250442 
0.0266794 
0.0247433 
0.0354976 
0.0308557 
0.0314599 
0.0249181 
0.0193211 
0.0274745 
0.020808 
0.0172925 
0.0343099 
0.0375585 
0.016884 
0.0226155 
0.022533 
0.0202247 
0.0118588 
0.0148182 
0.0262099 
0.0419548 
0.013328 
0.0357412 
0.0263672 
0.0242623 
0.0249538 
0.0272851 
0.038596 
0.0270809 
0.0178531 
0.0258974 
0.00861456 
0.0103269 
0.0297363 
0.0331972 
0.0172438 
0.0438862 
0.0146523 
0.0411693 
0.02713 
0.0371388 
0.0153003 
0.0344166 
0.0282463 
0.036497 
0.0208349 
0.0142578 
0.0289846 
0.0201369 
0.0227557 
0.0347607 
0.017388 
0.0187969 
0.0394545 
0.0274295 
0.0192953 
0.0237377 
0.0161362 
0.0377489 
0.02049 
0.016451 
0.0479648 
0.0237888 
0.0447827 
0.0250737 
0.0172383 
0.0504345 
0.0104913 
0.0414325 
0.00883496 
0.0148677 
0.0246214 
0.0169479 
0.0235538 
0.0255706 
0.0451027 
0.0194599 
0.028096 
0.0256135 
0.0446572 
0.016484 
0.019244 
0.0158796 
0.0309005 
0.0224104 
0.00692809 
0.0165683 
0.0168655 
0.00941969 
0.0097231 
0.0375642 
0.0287136 
0.0301314 
0.0168094 
0.0258215 
0.0184078 
0.0479476 
0.0108096 
0.0138766 
0.0139058 
0.0241296 
0.039694 
0.0341887 
0.0247866 
0.0372691 
0.0154256 
0.0289008 
0.0269723 
0.0232169 
0.0285748 
0.0144572 
0.0368911 
0.0289387 
0.0194682 
0.0214584 
0.0453879 
0.0311599 
0.028366 
0.0194198 
0.0347985 
0.0378528 
0.0285842 
0.0319058 
0.0183914 
0.0189013 
0.0420837 
0.0154982 
0.0273761 
0.0376952 
0.0450978 
0.0302753 
0.00765125 
0.0308211 
0.0181343 
0.0361155 
0.0193329 
0.02261 
0.0226222 
0.0208655 
0.022668 
0.0381447 
0.0195098 
0.0481198 
0.0302099 
0.0359171 
0.0404807 
0.0477323 
0.0492769 
0.0418781 
0.0411015 
0.0459028 
0.0365524 
0.0431659 
0.0113047 
0.0249855 
0.0197919 
0.0323444 
0.0349084 
0.0255764 
0.0343717 
0.0440495 
0.0366344 
0.0136135 
0.017134 
0.0193763 
0.0358344 
0.0507255 
0.0282145 
0.0377177 
0.0223392 
0.0237722 
0.0164644 
0.0254093 
0.0345431 
0.0291237 
0.0095749 
0.0305944 
0.0156363 
0.0252806 
0.0447595 
0.0138323 
0.0283144 
0.0160274 
0.0207562 
0.0247643 
0.0269235 
0.03155 
0.0349212 
0.0413188 
0.04907 
0.0311349 
0.0206104 
0.0344047 
0.0215012 
0.0135445 
0.0214407 
0.0244675 
0.0279001 
0.0259415 
0.0313035 
0.0384702 
0.0321906 
0.0361944 
0.0295357 
0.0394698 
0.0347868 
0.0295652 
0.0416523 
0.034717 
0.018862 
0.0351328 
0.0249429 
0.0179902 
0.0309957 
0.0166361 
0.0584272 
0.0307352 
0.0271815 
0.0115581 
0.013003 
0.0326709 
0.0213639 
0.00696794 
0.0162703 
0.0353807 
0.023086 
0.0122653 
0.037797 
0.0297533 
0.036028 
0.0232118 
0.0154079 
0.0354897 
0.0333455 
0.0381917 
0.020532 
0.0335083 
0.0284753 
0.0149051 
0.0144356 
0.0415022 
0.0254729 
0.0201427 
0.0234906 
0.0207292 
0.00644457 
0.0371643 
0.0296942 
0.0339325 
0.0326762 
0.0134019 
0.0227828 
0.0292721 
0.0204137 
0.0261058 
0.0370359 
0.0264638 
0.0222528 
0.0366239 
0.0267564 
0.00701791 
0.0368627 
0.0187905 
0.0213941 
0.03358 
0.0396679 
0.0270323 
0.0274253 
0.0304607 
0.00453432 
0.0316757 
0.0230832 
0.0406849 
0.0329303 
0.0471496 
0.0137332 
0.0123868 
0.0345925 
0.0246489 
0.0344821 
0.0231852 
0.0270422 
0.019901 
0.0377864 
0.0300151 
0.027702 
0.0354878 
0.0405942 
0.0213122 
0.0289173 
0.0316482 
0.0172558 
0.00784121 
0.00857718 
0.0182195 
0.0198566 
0.039839 
0.0258281 
0.019488 
0.0287881 
0.0325319 
0.024201 
0.0346215 
0.0202735 
0.0292707 
0.0162495 
0.0336794 
0.0212127 
0.0263504 
0.0156942 
0.0240568 
0.0314935 
0.018994 
0.0411638 
0.0482723 
0.0330367 
0.0332663 
0.00948696 
0.0233845 
0.0289113 
0.032731 
0.0225984 
0.0303707 
0.0272003 
0.0168612 
0.0150353 
0.0155419 
0.0307395 
0.0427147 
0.0165435 
0.0121365 
0.0263006 
0.0211961 
0.0214682 
0.0217642 
0.0272717 
0.00994061 
0.0376556 
0.0558389 
0.0163481 
0.0211125 
0.0351843 
0.0291321 
0.0339095 
0.0110553 
0.0410218 
0.00999519 
0.033002 
0.0356168 
0.0245406 
0.0324181 
0.0161791 
0.0361669 
0.0393142 
0.0262217 
0.0343499 
0.0217013 
0.0216676 
0.0257342 
0.0216128 
0.0231865 
0.0345038 
0.0163769 
0.0439171 
0.0163769 
0.0116785 
0.0242438 
0.0294198 
0.0421047 
0.0237079 
0.0261469 
0.0124782 
0.0283722 
0.0381033 
0.0403298 
0.0404681 
0.0197997 
0.0459655 
0.0434963 
0.028609 
0.0356181 
0.0127541 
0.0255886 
0.0338438 
0.0351542 
0.020666 
0.0422253 
0.035788 
0.0357928 
0.0153422 
0.0194887 
0.0189997 
0.0465385 
0.0256738 
0.0244627 
0.0272926 
0.021555 
0.0275576 
0.0196637 
0.0147314 
0.0219811 
0.0463518 
0.015492 
0.0320286 
0.0264093 
0.0172412 
0.0638382 
0.0387081 
0.033417 
0.0383446 
0.0253702 
0.036999 
0.0580918 
0.0255906 
0.0322644 
0.00328813 
0.0192829 
0.0282391 
0.0159849 
0.047018 
0.0434088 
0.0382883 
0.043829 
0.0226109 
0.0306764 
0.0284124 
0.0239626 
0.0126235 
0.0232385 
0.0216923 
0.0283333 
0.0307222 
0.0275929 
0.0195104 
0.0159771 
0.0337834 
0.0258296 
0.0268041 
0.0620258 
0.039764 
0.0197951 
0.0581084 
0.023306 
0.0166077 
0.0419108 
0.036518 
0.0259066 
0.0332566 
0.0260584 
0.0476501 
0.0401384 
0.016773 
0.0192389 
0.0336618 
0.0120633 
0.0214489 
0.0312341 
0.0209488 
0.0305304 
0.0321969 
0.0113195 
0.00937021 
0.00911597 
0.0123294 
0.0302143 
0.0199529 
0.0266387 
0.0233818 
0.0250453 
0.0124922 
0.0263892 
0.0263519 
0.0224662 
0.0351508 
0.0209345 
0.025214 
0.0451251 
0.013764 
0.0149729 
0.0238279 
0.0379278 
0.0214265 
0.0216776 
0.0365156 
0.03591 
0.0134499 
0.0403053 
0.0358049 
0.0308579 
0.0170372 
0.0196941 
0.0129257 
0.0364965 
0.0270155 
0.0350365 
0.0344646 
0.0272223 
0.0289137 
0.0180608 
0.0303416 
0.019853 
0.0197313 
0.0441996 
0.0242405 
0.0418088 
0.0391804 
0.023351 
0.0267076 
0.0259593 
0.0212107 
0.0278367 
0.0209996 
0.014705 
0.0422903 
0.0118788 
0.0176094 
0.0520988 
0.0356447 
0.0119785 
0.0240725 
0.0341523 
0.0253878 
0.0354412 
0.0057935 
0.00990516 
0.0262263 
0.0198714 
0.0168732 
0.0252161 
0.00783746 
0.0285424 
0.0177946 
0.0221637 
0.0514766 
0.01388 
0.0180797 
0.0242711 
0.0122574 
0.0178442 
0.023306 
0.0137526 
0.0258963 
0.0176802 
0.0243944 
0.0102369 
0.00890736 
0.0295403 
0.0177545 
0.0151764 
0.0276074 
0.0248971 
0.00696964 
0.00727345 
0.0233374 
0.0309621 
0.0383608 
0.0244461 
0.0350869 
0.0410783 
0.0171448 
0.0136366 
0.0177413 
0.0205635 
0.0099749 
0.0219197 
0.0168932 
0.0290896 
0.0177985 
0.00970461 
0.0502899 
0.0323638 
0.0275675 
0.0275386 
0.0211555 
0.0243929 
0.0215223 
0.0388589 
0.0243485 
0.0222107 
0.0446454 
0.0138083 
0.0103795 
0.0164297 
0.0122745 
0.0222773 
0.0110643 
0.0316416 
0.0346249 
0.0307939 
0.0266713 
0.0292102 
0.0291057 
0.0182825 
0.0469855 
0.0287883 
0.0116464 
0.0263883 
0.0324937 
0.037324 
0.0485405 
0.0158886 
0.0328972 
0.0293344 
0.0114545 
0.0269512 
0.0435656 
0.0181523 
0.0168961 
0.0162974 
0.0310534 
0.00754972 
0.0224097 
0.0307758 
0.0440142 
0.0169734 
0.01667 
0.030878 
0.0260378 
0.0272296 
0.0395216 
0.00693784 
0.045082 
0.0197432 
0.0312663 
0.0241104 
0.0265521 
0.0304214 
0.0324236 
0.020917 
0.0142543 
0.0330206 
0.0212501 
0.0304579 
0.0491341 
0.0321655 
0.0249712 
0.0439765 
0.0451916 
0.0402946 
0.0439869 
0.0194349 
0.0545982 
0.0537796 
0.038799 
0.0322083 
0.0235203 
0.0178466 
0.0298743 
0.0317108 
0.0466528 
0.0164598 
0.0220117 
0.0297794 
0.0274385 
0.0254435 
0.0440365 
0.0315146 
0.0234067 
0.0312258 
0.0303297 
0.0190924 
0.0264638 
0.0278461 
0.0368347 
0.019666 
0.0202676 
0.0152642 
0.0100257 
0.0399704 
0.0332957 
0.0244197 
0.0334065 
0.0286923 
0.0486805 
0.023532 
0.023954 
0.0233382 
0.0203138 
0.0291078 
0.0257831 
0.0440919 
0.0180491 
0.0235833 
0.0192542 
0.0158919 
0.0218258 
0.0317379 
0.0409396 
0.0290677 
0.0291866 
0.0330331 
0.0135435 
0.0312766 
0.0250171 
0.0281537 
0.0214983 
0.0302683 
0.0187857 
0.03409 
0.0191102 
0.0430886 
0.0212765 
0.0222706 
0.026265 
0.00878641 
0.0192329 
0.0276367 
0.0175287 
0.0349285 
0.0104803 
0.0279642 
0.0255335 
0.0158422 
0.0233877 
0.034741 
0.0286643 
0.0136133 
0.0254625 
0.0492583 
0.0222474 
0.0363711 
0.0229923 
0.0270261 
0.0192706 
0.0208338 
0.0206093 
0.0221171 
0.0288624 
0.0124557 
0.0375438 
0.0253442 
0.0352101 
0.0135398 
0.0299234 
0.0286686 
0.0181433 
0.0108828 
0.0305268 
0.0198029 
0.0244984 
0.017614 
0.0221422 
0.0551891 
0.0158541 
0.0641647 
0.0284627 
0.0215152 
0.0173187 
0.0248318 
0.0312199 
0.0248541 
0.0365206 
0.0448072 
0.0184187 
0.0300333 
0.0380139 
0.0161893 
0.00527164 
0.0362549 
0.0164583 
0.0232505 
0.0151015 
0.039767 
0.0275063 
0.0226871 
0.0141416 
0.0197554 
0.0194005 
0.028749 
0.0225316 
0.037801 
0.0159004 
0.0112558 
0.0191774 
0.0280383 
0.0182801 
0.0261417 
0.0249605 
0.0250285 
0.0190515 
0.0170046 
0.0381041 
0.0136228 
0.0188604 
0.0179582 
0.0312025 
0.0477565 
0.0235294 
0.0360161 
0.046859 
0.0462291 
0.0336917 
0.0171202 
0.0258733 
0.0156033 
0.00371842 
0.0410316 
0.0314764 
0.0168367 
0.0436453 
0.0366083 
0.013111 
0.033429 
0.0169245 
0.0201258 
0.046657 
0.017957 
0.00943322 
0.0100717 
0.0438794 
0.0145199 
0.0258001 
0.0353631 
0.0249509 
0.0276225 
0.0328305 
0.0204482 
0.0155236 
0.0437537 
0.0203602 
0.0463215 
0.0240611 
0.0324485 
0.0229547 
0.023924 
0.0201226 
0.0262824 
0.0295637 
0.0319427 
0.058349 
0.030215 
0.027049 
0.0203119 
0.0364065 
0.0172047 
0.0220664 
0.0377584 
0.0322848 
0.0273154 
0.0164001 
0.0239583 
0.0306664 
0.0130994 
0.0262006 
0.0259106 
0.0267603 
0.033363 
0.0298929 
0.0157142 
0.0271667 
0.0220751 
0.0259781 
0.0265481 
0.0368429 
0.0419547 
0.0273835 
0.0209491 
0.0351513 
0.0200679 
0.0632028 
0.0149955 
0.0339229 
0.0181834 
0.0210864 
0.0263976 
0.0127508 
0.0168118 
0.0402128 
0.0596851 
0.0510894 
0.0344298 
0.0272932 
0.0393306 
0.0529435 
0.0370369 
0.0394206 
0.019896 
0.0154266 
0.00408871 
0.0133953 
0.0343039 
0.0433022 
0.0277572 
0.0106438 
0.030239 
0.0335509 
0.0264711 
0.0354496 
0.0224335 
0.0269846 
0.033693 
0.0239955 
0.043997 
0.0245593 
0.0287664 
0.0220403 
0.0338197 
0.0174624 
0.0306439 
0.0226782 
0.0268866 
0.0262187 
0.0135504 
0.035706 
0.0268147 
0.0174322 
0.0265801 
0.0128455 
0.00607206 
0.0154848 
0.0415528 
0.0209044 
0.03304 
0.0176241 
0.0312888 
0.0163149 
0.0355257 
0.0229584 
0.0245816 
0.0470702 
0.0244164 
0.0324352 
0.0437014 
0.0174874 
0.0288843 
0.0312492 
0.0159062 
0.0314919 
0.033496 
0.031086 
0.0142961 
0.0146515 
0.0206657 
0.0465157 
0.0343415 
0.0295682 
0.0227471 
0.0452868 
0.0288827 
0.0260344 
0.045078 
0.0232279 
0.019534 
0.0230149 
0.0142285 
0.0191501 
0.017485 
0.0294166 
0.0295028 
0.0247809 
0.0234475 
0.0147487 
0.0233609 
0.0332248 
0.00871799 
0.0245154 
0.0188191 
0.0272925 
0.0180936 
0.0233638 
0.0254561 
0.0249006 
0.0260765 
0.0228728 
0.0102933 
0.0146054 
0.0218916 
0.0111113 
0.0304368 
0.0218413 
0.0132599 
0.00826922 
0.0240294 
0.0111137 
0.0328498 
0.0356828 
0.00284586 
0.0420296 
0.0408414 
0.0499815 
0.0359362 
0.0381664 
0.0312131 
0.0385122 
0.0319326 
0.0303465 
0.0202337 
0.0399398 
0.0189962 
0.037084 
0.0325592 
0.0208248 
0.0249523 
0.0139332 
0.0374421 
0.0124862 
0.0230061 
0.0183591 
0.0125132 
0.0289365 
0.0501144 
0.0315547 
0.0195422 
0.0167018 
0.00877824 
0.0615756 
0.0397118 
0.0211112 
0.0262206 
0.036274 
0.0424334 
0.0397224 
0.0316649 
0.0416526 
0.009437 
0.0199776 
0.0207286 
0.0147318 
0.0152382 
0.0214195 
0.029683 
0.0243458 
0.0427181 
0.0400215 
0.0405027 
0.0263831 
0.0137895 
0.0460779 
0.0239771 
0.00543333 
0.0321465 
0.0345784 
0.00557113 
0.0349193 
0.0433733 
0.0147773 
0.011095 
0.0186339 
0.0192128 
0.021262 
0.025821 
0.00978643 
0.015269 
0.00913021 
0.026766 
0.00574595 
0.0256929 
0.0154665 
0.0184205 
0.0127687 
0.0371603 
0.0230104 
0.0491132 
0.0167867 
0.0137299 
0.0393928 
0.0290559 
0.0297949 
0.00908605 
0.0118494 
0.0363029 
0.0245968 
0.0241924 
0.0180603 
0.0355567 
0.0282871 
0.0181974 
0.0411342 
0.0269179 
0.0180329 
0.0265621 
0.0206042 
0.0116912 
0.0216849 
0.0155148 
0.0203156 
0.0428653 
0.0312914 
0.0214731 
0.0406165 
0.0167569 
0.0255785 
0.0205039 
0.00942226 
0.0408728 
0.0219802 
0.0309322 
0.0269232 
0.0121383 
0.0419854 
0.0110157 
0.0288605 
0.0165035 
0.00491332 
0.0265725 
0.0263288 
0.0226706 
0.0209018 
0.0168568 
0.0310813 
0.00864278 
0.0210898 
0.0150376 
0.00963833 
0.0262122 
0.0418778 
0.0110731 
0.0242608 
0.0433265 
0.010978 
0.0307573 
0.0164807 
0.0488279 
0.0179083 
0.0324721 
0.0308392 
0.0106603 
0.0356579 
0.0169932 
0.0391597 
0.0418886 
0.0158044 
0.015381 
0.0287522 
0.0322443 
0.0456778 
0.0289898 
0.00509109 
0.0398225 
0.0136455 
0.0187142 
0.0216474 
0.02816 
0.0410259 
0.0254322 
0.0123371 
0.0182127 
0.0241311 
0.0124724 
0.0416138 
0.0152476 
0.0366949 
0.0486551 
0.0458108 
0.0487172 
0.033036 
0.0167147 
0.0304361 
0.0490086 
0.0206915 
0.025126 
0.0266369 
0.0323263 
0.0217111 
0.0504803 
0.0220806 
0.033233 
0.0293401 
0.0418302 
0.0315903 
0.0120306 
0.030136 
0.0257791 
0.0223344 
0.0219146 
0.0207328 
0.0409293 
0.0156219 
0.0210186 
0.0342064 
0.016406 
0.0211987 
0.00385682 
0.0335779 
0.0239691 
0.0109648 
0.0388667 
0.0183627 
0.0631347 
0.0394983 
0.0364882 
0.028963 
0.0215331 
0.0391101 
0.0300476 
0.0154468 
0.0449799 
0.0126223 
0.0127485 
0.0135043 
0.0381011 
0.00910653 
0.0284177 
0.0287481 
0.0285504 
0.0218622 
0.00766969 
0.0386116 
0.016755 
0.0551668 
0.0363529 
0.0468035 
0.0492719 
0.0518077 
0.0130239 
0.0615904 
0.050681 
0.0391733 
0.00293209 
0.0349989 
0.0365546 
0.0392483 
0.0303629 
0.0204371 
0.0305 
0.0253587 
0.0355918 
0.0419329 
0.0313324 
0.0282967 
0.0278465 
0.0111417 
0.020174 
0.0277822 
0.0138356 
0.042888 
0.0395196 
0.035056 
0.0296629 
0.0265516 
0.0115212 
0.0453783 
0.0333552 
0.0237276 
0.0467754 
0.038271 
0.0394027 
0.0421945 
0.0452734 
0.0211114 
0.0558507 
0.0441842 
0.0478329 
0.0429229 
0.0496029 
0.00947306 
0.0125168 
0.0221826 
0.0163069 
0.0261856 
0.0396029 
0.0386647 
0.0399124 
0.0194892 
0.0242757 
0.0242709 
0.0203068 
0.0307966 
0.0177203 
0.00803054 
0.0162637 
0.019457 
0.015815 
0.0260407 
0.0202191 
0.0137959 
0.0459812 
0.023842 
0.0443954 
0.0233776 
0.0347831 
0.0169762 
0.0317303 
0.0583314 
0.0237782 
0.0372923 
0.0248888 
0.033553 
0.0313784 
0.0531076 
0.0199979 
0.0350007 
0.0246951 
0.0465849 
0.024309 
0.0185508 
0.0500749 
0.0313822 
0.0190285 
0.0182355 
0.0251207 
0.0231419 
0.017055 
0.012446 
0.031521 
0.0255084 
0.0278061 
0.0226409 
0.0306619 
0.0281646 
0.032864 
0.0237388 
0.0180124 
0.0168619 
0.0157091 
0.00984703 
0.0195325 
0.0291437 
0.0133466 
0.0133877 
0.0443893 
0.0253386 
0.0545611 
0.0307238 
0.0168837 
0.0248819 
0.0133994 
0.0323952 
0.0237107 
0.0235011 
0.0225816 
0.033129 
0.0636915 
0.0366051 
0.020999 
0.0126182 
0.00983823 
0.0167659 
0.0110922 
0.00908072 
0.0241351 
0.0161745 
0.0203451 
0.0285703 
0.0236152 
0.0259568 
0.0128349 
0.0425747 
0.0285062 
0.0147872 
0.0235289 
0.024301 
0.0312937 
0.0118666 
0.0254548 
0.0251349 
0.0245409 
0.0282182 
0.0195665 
0.0293896 
0.0210441 
0.00456079 
0.0251719 
0.026349 
0.0118822 
0.0325168 
0.0323653 
0.00551776 
0.0333067 
0.038609 
0.0379674 
0.0129687 
0.0623923 
0.0136364 
