ITEM: TIMESTEP
100
ITEM: NUMBER OF ATOMS
2048
ITEM: BOX BOUNDS pp pp pp
0 10.9855
0 10.9855
0 10.9855
ITEM: ATOMS c_displacement[4] 
0.0211107 
0.0330191 
0.0221491 
0.044694 
0.0283011 
0.0287533 
0.0326218 
0.0188594 
0.0476939 
0.00871318 
0.0187843 
0.0372484 
0.0377379 
0.00719884 
0.011953 
0.0248888 
0.0120077 
0.0287084 
0.02616 
0.0372284 
0.0322404 
0.0340711 
0.0179876 
0.0330246 
0.017059 
0.028082 
0.0230835 
0.0260797 
0.0164945 
0.0370315 
0.0598728 
0.036968 
0.0345449 
0.0326771 
0.0217365 
0.0316495 
0.0116227 
0.0163215 
0.0288813 
0.0194811 
0.0216989 
0.00895061 
0.0105944 
0.031295 
0.0192937 
0.0319348 
0.0343605 
0.0163065 
0.0327338 
0.0293759 
0.010257 
0.00550157 
0.0134641 
0.0341786 
0.0137562 
0.042095 
0.0405765 
0.00865636 
0.0281298 
0.00887516 
0.0196237 
0.0446994 
0.028103 
0.0379021 
0.0252665 
0.0208385 
0.0377816 
0.0264979 
0.0295805 
0.0329438 
0.0438393 
0.0141958 
0.0490659 
0.00855345 
0.0399367 
0.0350326 
0.0250836 
0.0269609 
0.0335519 
0.0393037 
0.0208933 
0.0504127 
0.0355019 
0.0317994 
0.0250668 
0.0232984 
0.0290304 
0.0287427 
0.0274986 
0.0341862 
0.0242655 
0.0145289 
0.0478715 
0.0165337 
0.0391366 
0.0198565 
0.0411787 
0.020489 
0.0236083 
0.0147938 
0.0138374 
0.016046 
0.0309681 
0.0239185 
0.0280987 
0.034812 
0.0424706 
0.0659216 
0.0163027 
0.0419367 
0.0228605 
0.0286266 
0.0108263 
0.0279428 
0.0420578 
0.0300657 
0.0268666 
0.0203494 
0.0242983 
0.0406253 
0.0406459 
0.0201828 
0.0177779 
0.0220516 
0.00766373 
0.0260056 
0.0318127 
0.0307101 
0.0198952 
0.0280038 
0.0161328 
0.015311 
0.052287 
0.00399798 
0.0198548 
0.0247902 
0.045563 
0.0128608 
0.0280117 
0.0144823 
0.0147261 
0.0232673 
0.0189568 
0.0224945 
0.0323602 
0.0380978 
0.0137114 
0.0216173 
0.0067043 
0.0325474 
0.0326338 
0.0311329 
0.0313564 
0.0182895 
0.027386 
0.0247502 
0.0247103 
0.0349115 
0.0263052 
0.0261984 
0.0340635 
0.0341636 
0.0299312 
0.0468006 
0.0401776 
0.0266644 
0.0239851 
0.0268423 
0.0198013 
0.0423829 
0.0144064 
0.0268971 
0.00796355 
0.0290652 
0.0294825 
0.0107648 
0.0238119 
0.0138021 
0.0284915 
0.0408872 
0.0350624 
0.0178676 
0.0283934 
0.0228699 
0.0235119 
0.0326684 
0.0348973 
0.0195506 
0.0482078 
0.0329481 
0.0191061 
0.0293641 
0.0384021 
0.0543833 
0.0126646 
0.0333721 
0.00768285 
0.0373851 
0.0319838 
0.0380121 
0.0458855 
0.046632 
0.0079725 
0.0314584 
0.0283598 
0.0332611 
0.0368873 
0.0234112 
0.0415907 
0.0283059 
0.0316424 
0.0425795 
0.0341976 
0.0290341 
0.0316495 
0.0267288 
0.0477844 
0.0250001 
0.00879076 
0.0186399 
0.0158006 
0.0257605 
0.016902 
0.0272065 
0.0249019 
0.0125359 
0.0148687 
0.0308713 
0.0208293 
0.0213205 
0.0195697 
0.0180764 
0.0139742 
0.0143322 
0.0349669 
0.0242621 
0.0203914 
0.0258632 
0.0307117 
0.0408666 
0.0217554 
0.0376641 
0.0376428 
0.0271934 
0.0261445 
0.0375301 
0.0335812 
0.0150449 
0.0273028 
0.0237568 
0.0167175 
0.0240827 
0.0137615 
0.021623 
0.0394485 
0.0169161 
0.0120762 
0.0444933 
0.0144003 
0.0419575 
0.0131194 
0.0353171 
0.0173268 
0.0187963 
0.0187456 
0.0272016 
0.0451291 
0.0264364 
0.0247081 
0.0111953 
0.00632683 
0.0377224 
0.0201077 
0.0418559 
0.0266174 
0.0163612 
0.0339799 
0.0154283 
0.0184393 
0.0137022 
0.030997 
0.0213893 
0.0650618 
0.0152663 
0.0252342 
0.0150464 
0.0297008 
0.0300661 
0.032046 
0.0202619 
0.0127276 
0.0193334 
0.0286964 
0.0357876 
0.0286523 
0.0331797 
0.0321194 
0.0377144 
0.0209958 
0.00671771 
0.0106171 
0.0265575 
0.0344373 
0.0484589 
0.0401935 
0.0141119 
0.0282518 
0.00945581 
0.0427742 
0.0155852 
0.0489685 
0.0503589 
0.0264678 
0.0171151 
0.0360596 
0.0253037 
0.0195484 
0.00521293 
0.0262052 
0.025615 
0.0574621 
0.016888 
0.0251899 
0.0333248 
0.0198786 
0.012565 
0.0270354 
0.0224778 
0.010643 
0.0346209 
0.0302801 
0.0382171 
0.0227131 
0.0293699 
0.0101121 
0.0283046 
0.0295799 
0.0257116 
0.068089 
0.0210276 
0.027444 
0.0404658 
0.0539825 
0.017648 
0.0280118 
0.0117856 
0.0259934 
0.0261496 
0.0346072 
0.0481779 
0.0119689 
0.0352296 
0.0206703 
0.00265234 
0.00846294 
0.0245705 
0.0624346 
0.0411938 
0.0272463 
0.0168709 
0.0198713 
0.0224408 
0.0205029 
0.033069 
0.00669249 
0.00944483 
0.0175222 
0.020535 
0.0338639 
0.0309904 
0.0231503 
0.0104096 
0.014879 
0.0153479 
0.00998462 
0.0391949 
0.0148103 
0.0439355 
0.0147883 
0.0296745 
0.0398694 
0.0211122 
0.0215053 
0.026431 
0.0219211 
0.0347392 
0.0308417 
0.0143966 
0.0361422 
0.0311902 
0.022366 
0.0413709 
0.0178617 
0.0353639 
0.0212697 
0.0123207 
0.0374001 
0.0226684 
0.0236759 
0.00700897 
0.00717266 
0.0306584 
0.0370091 
0.0376518 
0.020967 
0.0351495 
0.0392062 
0.0461462 
0.0302859 
0.0226292 
0.0322056 
0.0280152 
0.0400078 
0.0168859 
0.034172 
0.0137724 
0.0306136 
0.0490456 
0.0477682 
0.0250207 
0.043566 
0.0250304 
0.0151807 
0.0280998 
0.0251257 
0.0533337 
0.0288692 
0.0494913 
0.0366381 
0.0162007 
0.0222978 
0.0153964 
0.0297741 
0.0341895 
0.0171173 
0.0416769 
0.00929021 
0.0302115 
0.0301233 
0.0143026 
0.0235624 
0.022734 
0.0372324 
0.0346303 
0.043156 
0.0248318 
0.0375985 
0.0226157 
0.00748318 
0.0156013 
0.0267645 
0.0326055 
0.0379264 
0.0159882 
0.0160966 
0.0152406 
0.00594625 
0.0279362 
0.0399376 
0.0286679 
0.023522 
0.0315329 
0.0136927 
0.0386548 
0.00983678 
0.0219714 
0.0427852 
0.0282675 
0.023862 
0.014896 
0.0131334 
0.022691 
0.0258332 
0.046576 
0.0132878 
0.0416101 
0.0144296 
0.0369727 
0.0436779 
0.0178916 
0.0288538 
0.021623 
0.0176636 
0.0168352 
0.0179345 
0.0142862 
0.0175521 
0.021467 
0.0570706 
0.0414428 
0.0125555 
0.0222516 
0.0201108 
0.0237899 
0.0298569 
0.0259774 
0.0269831 
0.0306275 
0.0224514 
0.0404841 
0.00660768 
0.0165179 
0.0290241 
0.0250989 
0.0271803 
0.0225584 
0.0386711 
0.0295539 
0.0254928 
0.0582606 
0.0221346 
0.0284737 
0.0340672 
0.0341658 
0.0494413 
0.0381739 
0.0267842 
0.0305194 
0.025 
0.0128085 
0.0090994 
0.0117638 
0.0242683 
0.027976 
0.0253413 
0.0110139 
0.0140002 
0.0473537 
0.0175881 
0.0213768 
0.034003 
0.0256132 
0.0261632 
0.0442121 
0.0281671 
0.0199369 
0.0167506 
0.0173933 
0.0463746 
0.0533265 
0.0498271 
0.0319594 
0.0231392 
0.0477905 
0.0422409 
0.0474825 
0.0294509 
0.0230386 
0.038066 
0.0240339 
0.053562 
0.0273824 
0.0302042 
0.02618 
0.0343937 
0.0353678 
0.0104845 
0.0392401 
0.0224022 
0.0220555 
0.0228036 
0.0259061 
0.0243656 
0.0226342 
0.0093333 
0.00882647 
0.0222423 
0.0603616 
0.0441407 
0.0266992 
0.0380984 
0.0232802 
0.0554736 
0.00973632 
0.0264849 
0.0339376 
0.0277073 
0.0234796 
0.0431427 
0.0416902 
0.0288486 
0.014056 
0.0232079 
0.0197051 
0.0221761 
0.0163554 
0.0141575 
0.0175372 
0.0369862 
0.014559 
0.038256 
0.0206835 
0.00496036 
0.0317756 
0.020659 
0.0417836 
0.0325929 
0.0274498 
0.0558614 
0.00715745 
0.0253462 
0.0198092 
0.0269568 
0.0343432 
0.0336483 
0.0327688 
0.01649 
0.0252545 
0.0169298 
0.0368247 
0.019391 
0.0197892 
0.0321106 
0.0232869 
0.0183168 
0.0252005 
0.01955 
0.0140827 
0.0180653 
0.0203864 
0.0222622 
0.011237 
0.041948 
0.0194133 
0.0364511 
0.0193697 
0.0195934 
0.0238079 
0.039217 
0.0124213 
0.0147221 
0.0297657 
0.0136753 
0.0257785 
0.0225514 
0.0262252 
0.0328909 
0.0146238 
0.0325517 
0.0161376 
0.0435714 
0.0105876 
0.0598425 
0.0250237 
0.0377023 
0.0139811 
0.0271666 
0.00452711 
0.0255126 
0.02914 
0.00752028 
0.024067 
0.0241441 
0.0405487 
0.0262554 
0.0210639 
0.0152801 
0.0395551 
0.0228643 
0.0464832 
0.029254 
0.0179465 
0.0110952 
0.0527158 
0.0099877 
0.0384902 
0.0296574 
0.0285195 
0.0100435 
0.00968294 
0.0243334 
0.0413809 
0.0289894 
0.0106412 
0.0277009 
0.0204441 
0.024956 
0.0257861 
0.0335308 
0.0261639 
0.0293812 
0.00732693 
0.028591 
0.0223182 
0.0153357 
0.0507143 
0.0167855 
0.0197058 
0.033973 
0.04204 
0.0212919 
0.0131451 
0.0368641 
0.0388782 
0.0276769 
0.0655639 
0.0316407 
0.0123885 
0.00939049 
0.0235275 
0.0332858 
0.0222907 
0.0464201 
0.0190455 
0.0345949 
0.0258922 
0.0261049 
0.0231388 
0.0127844 
0.0276245 
0.0275346 
0.0687579 
0.0309871 
0.0318262 
0.0192095 
0.0215034 
0.0291253 
0.00458331 
0.0505029 
0.0119727 
0.0210827 
0.0170251 
0.0269631 
0.028285 
0.0190927 
0.0470472 
0.00982988 
0.028895 
0.0243225 
0.021176 
0.0169254 
0.0348563 
0.0124006 
0.0302585 
0.0316954 
0.0272592 
0.0409154 
0.0409321 
0.0235689 
0.0361349 
0.0221536 
0.0265373 
0.025751 
0.0133362 
0.00217608 
0.0165251 
0.0216369 
0.0451178 
0.0120326 
0.0408603 
0.0248094 
0.0404937 
0.0108541 
0.0260552 
0.0249371 
0.0198159 
0.0175715 
0.0143234 
0.0160618 
0.0294053 
0.0457265 
0.0251333 
0.00921865 
0.018863 
0.0158213 
0.0155758 
0.0162717 
0.0356692 
0.0114466 
0.0266708 
0.0420762 
0.0391986 
0.0158335 
0.0308362 
0.03079 
0.0295706 
0.0267873 
0.0171699 
0.0401398 
0.0312843 
0.0260931 
0.0361224 
0.0481966 
0.0436756 
0.019635 
0.0585502 
0.0341534 
0.0190374 
0.0130478 
0.0348169 
0.0189026 
0.0258939 
0.00934161 
0.0384661 
0.0225958 
0.0210361 
0.0297156 
0.0138193 
0.0105895 
0.0205443 
0.0332582 
0.0410239 
0.0295331 
0.05835 
0.0339679 
0.0222736 
0.026765 
0.0211226 
0.0283031 
0.0382164 
0.0511041 
0.0469218 
0.0367294 
0.0307124 
0.0314458 
0.0253585 
0.0319147 
0.0163906 
0.010386 
0.00653202 
0.0347331 
0.0188681 
0.0117242 
0.00624707 
0.0329435 
0.0186628 
0.0257784 
0.0531223 
0.0451933 
0.0466685 
0.0177914 
0.0179198 
0.0458987 
0.0270644 
0.0373907 
0.0357963 
0.0236126 
0.0485376 
0.0327238 
0.0385856 
0.0405064 
0.0298856 
0.00647902 
0.0301535 
0.0250386 
0.0189725 
0.0247169 
0.0140247 
0.0202186 
0.0204388 
0.0225935 
0.0302074 
0.0308234 
0.00899902 
0.0218373 
0.0306091 
0.0240684 
0.0248836 
0.0482168 
0.0395478 
0.0263049 
0.0153074 
0.0345646 
0.0400191 
0.0209433 
0.0415715 
0.0372005 
0.0360127 
0.0299256 
0.0130201 
0.0283006 
0.0265599 
0.0436032 
0.0333363 
0.0152191 
0.023846 
0.0294862 
0.009822 
0.017738 
0.0281459 
0.01795 
0.0318685 
0.0283396 
0.0298023 
0.0183586 
0.0313537 
0.0263703 
0.0244853 
0.0295825 
0.0306796 
0.00943852 
0.0296487 
0.0179574 
0.0242676 
0.0253515 
0.0245852 
0.0242293 
0.0263623 
0.0327541 
0.019893 
0.024393 
0.0204947 
0.0277837 
0.0130587 
0.0383678 
0.0339867 
0.032471 
0.0201805 
0.020927 
0.0195438 
0.0177954 
0.0215406 
0.0378021 
0.0372202 
0.0399043 
0.0190981 
0.0179228 
0.0296818 
0.0371045 
0.0399207 
0.0269658 
0.0235668 
0.024261 
0.0447815 
0.0286818 
0.0490026 
0.0239301 
0.0451218 
0.0229775 
0.0236993 
0.0372751 
0.0331357 
0.0221609 
0.026106 
0.0404086 
0.0422246 
0.0332033 
0.0217464 
0.0280924 
0.0532586 
0.0327349 
0.0343371 
0.00441475 
0.0253237 
0.041574 
0.025928 
0.0146505 
0.0282095 
0.0186313 
0.0259401 
0.0466937 
0.0356521 
0.0170859 
0.0164037 
0.0164844 
0.0100556 
0.0228184 
0.0249034 
0.0303831 
0.0181169 
0.0219333 
0.0227581 
0.00866471 
0.00303564 
0.0169856 
0.0247846 
0.0213286 
0.0302706 
0.0388661 
0.0451467 
0.0356791 
0.0351725 
0.0174581 
0.0316972 
0.0424139 
0.0155641 
0.0305807 
0.0273935 
0.051947 
0.0239084 
0.0177519 
0.00823259 
0.0191232 
0.0283839 
0.0381782 
0.0482171 
0.0425578 
0.025944 
0.0336854 
0.0311323 
0.00849532 
0.011029 
0.0235051 
0.0205861 
0.0257735 
0.0288536 
0.0463442 
0.0271732 
0.0542326 
0.0341549 
0.018969 
0.0429552 
0.0343124 
0.0262588 
0.0304766 
0.0191501 
0.0438079 
0.0281899 
0.0172806 
0.0239384 
0.0277903 
0.0306094 
0.0451791 
0.0124528 
0.0129349 
0.0232869 
0.0372365 
0.0152532 
0.027691 
0.022165 
0.0275221 
0.0442203 
0.0188347 
0.034504 
0.0154299 
0.0164802 
0.0118287 
0.0248691 
0.0148668 
0.0147335 
0.0135266 
0.0241518 
0.0269621 
0.0256255 
0.031081 
0.0170129 
0.0311589 
0.0203688 
0.0045077 
0.00439064 
0.0189035 
0.0209841 
0.0406433 
0.0141183 
0.0539233 
0.0122135 
0.0327232 
0.0484787 
0.0332176 
0.0295295 
0.020831 
0.0234698 
0.0126214 
0.0230152 
0.0111303 
0.023583 
0.031337 
0.00992986 
0.0162012 
0.0183713 
0.0256151 
0.0337277 
0.0429654 
0.0333618 
0.0385139 
0.0114946 
0.00816293 
0.0148483 
0.0211001 
0.0382433 
0.00829566 
0.0537189 
0.0501566 
0.007737 
0.0134502 
0.046191 
0.0445755 
0.0458418 
0.0182427 
0.051038 
0.0496751 
0.0183062 
0.0219095 
0.0332596 
0.025968 
0.0116848 
0.0305455 
0.0409982 
0.0248165 
0.0288871 
0.0243011 
0.00815357 
0.0331696 
0.0386494 
0.0295918 
0.0378423 
0.0168877 
0.0113641 
0.0236995 
0.0255702 
0.0318952 
0.0314332 
0.0281326 
0.0216966 
0.0073988 
0.0349936 
0.0142107 
0.0412743 
0.0194165 
0.0291197 
0.0388334 
0.0296101 
0.0161859 
0.0258831 
0.0262035 
0.0254558 
0.0229987 
0.0186193 
0.017497 
0.0525269 
0.0523701 
0.0186306 
0.0291529 
0.0210607 
0.0293509 
0.0150144 
0.0161622 
0.0072343 
0.0489127 
0.0309323 
0.0392855 
0.0443445 
0.00904687 
0.018791 
0.0482186 
0.0435732 
0.0397868 
0.0320181 
0.0371018 
0.0193523 
0.0273641 
0.0282155 
0.0284894 
0.0342975 
0.0261813 
0.0130787 
0.0231712 
0.0356172 
0.00889317 
0.0358175 
0.022397 
0.0394366 
0.0336167 
0.0284377 
0.0161907 
0.0452256 
0.038428 
0.0369027 
0.0324784 
0.0201082 
0.0397251 
0.0394171 
0.025775 
0.0103202 
0.0166642 
0.0235393 
0.0359276 
0.013603 
0.0441302 
0.0239371 
0.0343516 
0.0322554 
0.026245 
0.0167043 
0.012868 
0.0198748 
0.0253244 
0.0324229 
0.022648 
0.0188159 
0.028899 
0.019189 
0.0102149 
0.0246351 
0.0238254 
0.0134327 
0.0433259 
0.0197401 
0.0199962 
0.0475823 
0.0454913 
0.0377941 
0.0392263 
0.0347258 
0.0334241 
0.0218779 
0.030141 
0.03998 
0.0419592 
0.0182064 
0.0126792 
0.0217125 
0.0149333 
0.0201595 
0.0145585 
0.030234 
0.0244483 
0.0317624 
0.0297619 
0.0452313 
0.0187097 
0.0190758 
0.010901 
0.0199196 
0.0173069 
0.0247178 
0.00730365 
0.0524832 
0.0190107 
0.010679 
0.0142438 
0.0126559 
0.0169895 
0.03809 
0.0293337 
0.0128948 
0.0463 
0.0427741 
0.0102776 
0.0478 
0.0242886 
0.0520613 
0.0316955 
0.0225584 
0.0191756 
0.0340715 
0.029831 
0.0540546 
0.0349792 
0.033598 
0.0163516 
0.0201748 
0.0424447 
0.0242307 
0.0238496 
0.0339483 
0.0108159 
0.0272293 
0.0288126 
0.0160274 
0.0168691 
0.0265138 
0.0174568 
0.0206136 
0.0256569 
0.0447786 
0.048142 
0.0267444 
0.0324848 
0.0326138 
0.03179 
0.015684 
0.0467454 
0.0274006 
0.0230418 
0.0145575 
0.0092893 
0.0222461 
0.0204771 
0.0256146 
0.0308097 
0.00502212 
0.0109969 
0.0110687 
0.0212074 
0.0233819 
0.0133616 
0.0326306 
0.0455487 
0.0220179 
0.0282183 
0.0201438 
0.0265379 
0.0320495 
0.0153014 
0.0357411 
0.0290052 
0.0381996 
0.0465616 
0.0191314 
0.0277568 
0.012959 
0.0270268 
0.0346643 
0.0255225 
0.0153412 
0.0294433 
0.0322974 
0.0252364 
0.0126077 
0.0149649 
0.0399464 
0.0450486 
0.0254153 
0.00934356 
0.00840215 
0.0272642 
0.0249177 
0.0194491 
0.0458788 
0.0222285 
0.00693829 
0.0240497 
0.0270261 
0.0265828 
0.043427 
0.026898 
0.0133225 
0.0120762 
0.0207977 
0.0272504 
0.0185864 
0.0048471 
0.0132086 
0.0247709 
0.0321423 
0.0349411 
0.0239316 
0.00384774 
0.02428 
0.00889057 
0.028417 
0.0212544 
0.0278451 
0.0166583 
0.0165246 
0.0143198 
0.0189897 
0.0201085 
0.0107578 
0.0413665 
0.018068 
0.00501479 
0.0162418 
0.04682 
0.0149773 
0.0185672 
0.0177457 
0.0169398 
0.0181017 
0.0169615 
0.0236194 
0.0213798 
0.0250928 
0.0259081 
0.0430409 
0.00996401 
0.0382714 
0.0260063 
0.0108613 
0.0163485 
0.0101296 
0.0222548 
0.0264906 
0.0271288 
0.023463 
0.036846 
0.0129862 
0.0246306 
0.0235272 
0.0195848 
0.024377 
0.0151062 
0.00398971 
0.0244576 
0.0158872 
0.0223402 
0.0283999 
0.0285385 
0.0342395 
0.021096 
0.0291187 
0.0296882 
0.0239456 
0.0243085 
0.0118838 
0.0430908 
0.0164623 
0.0326246 
0.0313801 
0.00931183 
0.0281686 
0.0337021 
0.0375828 
0.0327855 
0.0116862 
0.0405723 
0.0301789 
0.0125362 
0.00961518 
0.0197492 
0.0264087 
0.0140124 
0.0345129 
0.0351049 
0.0498691 
0.0292658 
0.0339332 
0.0115451 
0.0218688 
0.0147297 
0.0161044 
0.0197724 
0.0146501 
0.0184134 
0.0332874 
0.021542 
0.0314166 
0.0223264 
0.0432103 
0.033063 
0.0252671 
0.0195302 
0.0227801 
0.0179475 
0.0275244 
0.044902 
0.0152279 
0.0415365 
0.043952 
0.0245461 
0.0143418 
0.0281936 
0.0308367 
0.0322784 
0.033087 
0.0302362 
0.0389612 
0.0402641 
0.0258696 
0.0546181 
0.0198908 
0.0152083 
0.0349302 
0.0164003 
0.0126881 
0.0150922 
0.0293447 
0.0114728 
0.0159034 
0.0385366 
0.023998 
0.0326906 
0.0254828 
0.0442194 
0.0164688 
0.0252537 
0.026805 
0.0107924 
0.0466157 
0.0233444 
0.0369387 
0.0141932 
0.0317646 
0.0214917 
0.026377 
0.0226337 
0.0132721 
0.0426914 
0.0526354 
0.0292651 
0.025559 
0.0506779 
0.0272111 
0.015521 
0.0360715 
0.0209013 
0.0300611 
0.0326745 
0.0086805 
0.0351483 
0.00567814 
0.0322476 
0.0270982 
0.0243154 
0.0194297 
0.0354343 
0.0193418 
0.0346467 
0.0316181 
0.0258471 
0.0210575 
0.0120779 
0.0354958 
0.035078 
0.0197458 
0.0190357 
0.0268111 
0.0306569 
0.01281 
0.0402198 
0.0174793 
0.0221055 
0.0312353 
0.0213656 
0.0202316 
0.0256618 
0.0233226 
0.0172561 
0.0401325 
0.0313953 
0.0210091 
0.0212837 
0.0129705 
0.0455431 
0.0273311 
0.0339248 
0.0332734 
0.0426508 
0.048297 
0.026151 
0.0200308 
0.0205037 
0.0535861 
0.0411805 
0.0428335 
0.0196386 
0.0198936 
0.0275928 
0.0303136 
0.0310605 
0.0394109 
0.0216304 
0.0354717 
0.0624635 
0.0500417 
0.0150609 
0.0350344 
0.0142948 
0.0271106 
0.0168051 
0.0378742 
0.0263279 
0.0323167 
0.0417896 
0.0133466 
0.032125 
0.0227847 
0.0190223 
0.0195567 
0.0105698 
0.0407586 
0.0399538 
0.0218026 
0.0428729 
0.040153 
0.0280344 
0.034689 
0.0467028 
0.0620435 
0.0172809 
0.014045 
0.0283017 
0.0261462 
0.0261465 
0.0302716 
0.004336 
0.0295264 
0.0197849 
0.0289861 
0.0581672 
0.0334496 
0.0350426 
0.0242607 
0.0330191 
0.016334 
0.0407734 
0.0254785 
0.0251619 
0.00843933 
0.02472 
0.0240657 
0.00783341 
0.0340052 
0.0172555 
0.0237619 
0.0194367 
0.0329163 
0.0233602 
0.0230558 
0.0207279 
0.0171686 
0.0260215 
0.0158565 
0.0384126 
0.0181647 
0.0349415 
0.0224851 
0.0251898 
0.0616286 
0.0153713 
0.0396481 
0.0227058 
0.0406773 
0.0504298 
0.0381958 
0.0224877 
0.0173468 
0.0286776 
0.0103465 
0.0136523 
0.0281771 
0.0542803 
0.0108592 
0.0261153 
0.0183206 
0.034465 
0.01791 
0.0359034 
0.027555 
0.0172178 
0.0245041 
0.0226608 
0.0268253 
0.0153834 
0.0432103 
0.0331643 
0.0426439 
0.0172929 
0.0332976 
0.0356006 
0.0543497 
0.027453 
0.00501688 
0.0404699 
0.0210988 
0.0170545 
0.0263011 
0.0400185 
0.02409 
0.0203496 
0.0129883 
0.0219335 
0.0145543 
0.0159319 
0.0216699 
0.0239098 
0.0249768 
0.0333936 
0.0321807 
0.0158843 
0.0242247 
0.0249233 
0.0272142 
0.0114606 
0.0448821 
0.0207312 
0.0196524 
0.0153187 
0.0251791 
0.0192583 
0.0222681 
0.0188277 
0.0227686 
0.0362502 
0.0287376 
0.0123779 
0.0436682 
0.0244997 
0.0183965 
0.0504183 
0.0249457 
0.0343526 
0.0200913 
0.026539 
0.0219988 
0.0342476 
0.045731 
0.0240804 
0.058961 
0.0487716 
0.0297222 
0.0437992 
0.0329623 
0.03586 
0.0251273 
0.0202711 
0.0372991 
0.0161589 
0.0461249 
0.0318177 
0.0171864 
0.0389139 
0.0195627 
0.0123257 
0.0317886 
0.0263705 
0.0271286 
0.0155552 
0.023678 
0.0459572 
0.0175553 
0.0145117 
0.012265 
0.0178568 
0.0391494 
0.0346955 
0.0105598 
0.0268877 
0.0309092 
0.0215888 
0.0199334 
0.0388101 
0.00468872 
0.0368516 
0.0429602 
0.0235703 
0.043612 
0.035574 
0.0237002 
0.0229385 
0.012538 
0.0107259 
0.0139486 
0.0434774 
0.0296265 
0.0209771 
0.0376966 
0.023954 
0.026114 
0.019729 
0.0156406 
0.023855 
0.0319047 
0.0385713 
0.0339879 
0.0120671 
0.0345285 
0.0179682 
0.0108968 
0.0257426 
0.0110502 
0.0340992 
0.0229741 
0.0205237 
0.0439789 
0.0347206 
0.0110612 
0.040674 
0.0262248 
0.0354483 
0.0191622 
0.0347974 
0.0420285 
0.0343995 
0.0445543 
0.0247621 
0.0260979 
0.0138505 
0.0272679 
0.0175601 
0.0345896 
0.0334242 
0.0258624 
0.00724544 
0.045215 
0.00675584 
0.0252613 
0.0462801 
0.00275473 
0.0349304 
0.0350065 
0.0108755 
0.0488451 
0.0183723 
0.0173488 
0.0376281 
0.0249382 
0.0294536 
0.0340668 
0.0155687 
0.0385686 
0.0410454 
0.0257333 
0.00778463 
0.038711 
0.0378559 
0.0355425 
0.0340391 
0.0349795 
0.0256938 
0.0317492 
0.0518221 
0.0488923 
0.0130842 
0.0342162 
0.0243095 
0.0535337 
0.0285163 
0.0266174 
0.0248383 
0.00487347 
0.0318619 
0.0198874 
0.0454481 
0.00569902 
0.0197254 
0.0136393 
0.0449673 
0.0236006 
0.0337197 
0.0185537 
0.0306741 
0.0274421 
0.00918992 
0.0256195 
0.0326636 
0.0220144 
0.0357831 
0.00581602 
0.0300217 
0.0181686 
0.0264981 
0.0374896 
0.0282769 
0.025735 
0.0228857 
0.00824505 
0.0297046 
0.0231108 
0.0323529 
0.0112095 
0.0310447 
0.0538246 
0.0177315 
0.0499345 
0.0246555 
0.0385704 
0.0233632 
0.0507568 
0.0447673 
0.0152837 
0.0312892 
0.0311548 
0.0276347 
0.0250374 
0.0128552 
0.0300991 
0.0271482 
0.0374293 
0.0299871 
0.0190648 
0.0296899 
0.0331471 
0.0460778 
0.0179598 
0.0477246 
0.0217905 
0.0384449 
0.0325882 
0.0210881 
0.0234186 
0.0375097 
0.0501875 
0.0389172 
0.0239062 
0.0198319 
0.0186285 
0.0363034 
0.0220387 
0.033624 
0.0326993 
0.0299617 
0.0422377 
0.0528376 
0.0119312 
0.0244152 
0.0170379 
0.0105543 
0.0114398 
0.0192264 
0.0430583 
0.00793488 
0.0194841 
0.0237446 
0.0280906 
0.0298179 
0.0162097 
0.0117196 
0.039783 
0.0413555 
0.0536661 
0.0436094 
0.040205 
0.0311246 
0.0242871 
0.027787 
0.0456279 
0.020162 
0.039643 
0.0261873 
0.0153692 
0.0201889 
0.0369779 
0.0165904 
0.03225 
0.018849 
0.0392553 
0.0262339 
0.0295132 
0.0356733 
0.00520817 
0.0342846 
0.0462297 
0.047337 
0.0381009 
0.0337524 
0.0348751 
0.0367776 
0.0298209 
0.0142849 
0.018984 
0.0191038 
0.0353279 
0.040289 
0.0482901 
0.046375 
0.0338558 
0.00986893 
0.0257188 
0.015719 
0.0380924 
0.0440643 
0.0474871 
0.0387097 
0.0185988 
0.0153482 
0.0414485 
0.0231007 
0.0192748 
0.0233959 
0.0201021 
0.00917465 
0.0244362 
0.0314339 
0.0239037 
0.0107202 
0.0253028 
0.023048 
0.0243287 
0.0172681 
0.0267287 
0.0295142 
0.0112754 
0.0473868 
0.0361604 
0.01598 
0.0309407 
0.0160678 
0.0100345 
0.0423618 
0.0182492 
0.0321069 
0.042631 
0.0476683 
0.0462508 
0.0559376 
0.028235 
0.0179496 
0.0312779 
0.00995325 
0.0315224 
0.0498393 
0.0312049 
0.0576073 
0.0438117 
0.0596328 
0.0016036 
0.0289436 
0.025838 
0.0176737 
0.0119338 
0.0275406 
0.0132504 
0.0313593 
0.029122 
0.0347389 
0.0264763 
0.00927657 
0.0367737 
0.0306725 
0.0181302 
0.00824031 
0.0177131 
0.0494676 
0.0410037 
0.0228679 
0.0343476 
0.0179763 
0.0340115 
0.0264834 
0.0266793 
0.0386237 
0.0251026 
0.044005 
0.0165289 
0.0126858 
0.0189848 
0.026078 
0.0362849 
0.0236059 
0.0282162 
0.0149276 
0.0181622 
0.0305681 
0.0325005 
0.0220066 
0.0294769 
0.0257001 
0.0302977 
0.0123439 
0.0150633 
0.0244264 
0.0186964 
0.0364278 
0.0294241 
0.0190525 
0.0248251 
0.0320666 
0.0192888 
0.0217191 
0.0168561 
0.0280809 
0.0209328 
0.0479349 
0.0286784 
0.0603813 
0.0365452 
0.0221127 
0.0290081 
0.0334454 
0.0161696 
0.0204118 
0.0367088 
0.0429228 
0.0392477 
0.0325239 
0.035692 
