ITEM: TIMESTEP
300
ITEM: NUMBER OF ATOMS
2048
ITEM: BOX BOUNDS pp pp pp
0 10.9855
0 10.9855
0 10.9855
ITEM: ATOMS c_displacement[4] 
0.0352739 
0.0197809 
0.0221266 
0.0391273 
0.00643923 
0.0240258 
0.0186668 
0.0268992 
0.0322485 
0.0115779 
0.0210036 
0.0228928 
0.043569 
0.0231817 
0.0316278 
0.0266732 
0.0258736 
0.0230333 
0.0221628 
0.0233564 
0.0286802 
0.0271359 
0.0239722 
0.0353564 
0.0133735 
0.0268952 
0.0384941 
0.0454614 
0.0280659 
0.0217733 
0.0177994 
0.0208985 
0.0283274 
0.0318256 
0.00621914 
0.0187419 
0.0226358 
0.0193656 
0.0311244 
0.0425851 
0.00684607 
0.0232811 
0.00471434 
0.0308894 
0.00493825 
0.0313829 
0.0451817 
0.0211702 
0.0140286 
0.0241404 
0.0318685 
0.0423999 
0.0385101 
0.018857 
0.0408585 
0.0155573 
0.0567892 
0.0266566 
0.0229205 
0.0177595 
0.0452991 
0.0111983 
0.0302532 
0.0309189 
0.0268575 
0.0269706 
0.0133771 
0.0295494 
0.0479669 
0.0164762 
0.0200934 
0.0383003 
0.0329035 
0.0254226 
0.0290872 
0.0352352 
0.0259494 
0.0196946 
0.0353538 
0.0157404 
0.0132439 
0.00682599 
0.0515286 
0.0555923 
0.0450768 
0.0073756 
0.0286411 
0.0545115 
0.0239082 
0.00502656 
0.0252729 
0.0371885 
0.0187191 
0.0282826 
0.0229415 
0.0474132 
0.03432 
0.0512863 
0.0389639 
0.0419111 
0.0254354 
0.0591405 
0.035398 
0.0251908 
0.0258981 
0.0207507 
0.0252701 
0.0317303 
0.0279889 
0.0197919 
0.0302394 
0.0310726 
0.0277907 
0.0302503 
0.0336403 
0.0164088 
0.019153 
0.0194925 
0.016212 
0.0179095 
0.0124222 
0.0258298 
0.0227251 
0.0286041 
0.0515136 
0.0242608 
0.0392563 
0.0282581 
0.0409401 
0.0401365 
0.0421902 
0.0268656 
0.0324862 
0.019535 
0.0114162 
0.0229697 
0.00953987 
0.0418597 
0.00989625 
0.0375554 
0.0110059 
0.024268 
0.0255906 
0.0562474 
0.0490539 
0.0252857 
0.0421575 
0.0197217 
0.0305715 
0.0157065 
0.0268077 
0.022778 
0.041152 
0.0494305 
0.0242087 
0.0304894 
0.0255335 
0.0275854 
0.0418735 
0.0384584 
0.0451447 
0.0238178 
0.0558328 
0.0235828 
0.0152735 
0.025922 
0.0262474 
0.0389771 
0.0389265 
0.0301659 
0.0352689 
0.0361399 
0.0217178 
0.00987877 
0.022355 
0.0220892 
0.0220355 
0.0311333 
0.0335201 
0.0374014 
0.0550389 
0.040507 
0.0377363 
0.0334865 
0.0509381 
0.0176008 
0.0238809 
0.0137475 
0.0274097 
0.0214827 
0.0297377 
0.01393 
0.0386805 
0.0368769 
0.0325945 
0.0282964 
0.0320686 
0.0227438 
0.00938447 
0.0305594 
0.0309067 
0.0428548 
0.0406179 
0.0433379 
0.0161743 
0.0248642 
0.0548019 
0.0121214 
0.0127561 
0.0356904 
0.0193684 
0.0233567 
0.0359912 
0.0281449 
0.0301449 
0.0312152 
0.0339698 
0.0229931 
0.0326813 
0.0641212 
0.0310514 
0.0181014 
0.0501541 
0.050214 
0.0125622 
0.0237884 
0.038936 
0.0523325 
0.0324922 
0.0279357 
0.0225825 
0.0129296 
0.0297039 
0.0209188 
0.0334961 
0.0122508 
0.0286834 
0.0209934 
0.0141366 
0.0524051 
0.0382777 
0.0255443 
0.0131306 
0.0290908 
0.0143431 
0.0461032 
0.0220985 
0.0231254 
0.0328011 
0.0332859 
0.038696 
0.0391892 
0.0105429 
0.0231503 
0.0200396 
0.0125477 
0.0188174 
0.0143276 
0.0170671 
0.0218604 
0.0335839 
0.0198918 
0.0278518 
0.0157142 
0.0298914 
0.0239556 
0.01866 
0.0371269 
0.013416 
0.0424458 
0.00831211 
0.0330554 
0.0239524 
0.0250996 
0.021963 
0.0381255 
0.0218467 
0.0297505 
0.0265814 
0.0201694 
0.0386827 
0.0281302 
0.0424913 
0.00777461 
0.0243902 
0.0188586 
0.0211869 
0.0172885 
0.0349278 
0.0198692 
0.0263204 
0.0411768 
0.051348 
0.0185913 
0.0614693 
0.0274858 
0.0407372 
0.0478702 
0.0277858 
0.0203967 
0.0344318 
0.015393 
0.0219053 
0.0299218 
0.0286566 
0.0140499 
0.0260326 
0.0399212 
0.0154666 
0.0121237 
0.00952007 
0.0263359 
0.0247523 
0.0176438 
0.0219924 
0.0185625 
0.0171205 
0.0240638 
0.0214734 
0.0420304 
0.0249921 
0.0419026 
0.0321715 
0.0436297 
0.0272797 
0.0200482 
0.0258265 
0.00963322 
0.0237053 
0.0215854 
0.0274046 
0.0324826 
0.0398061 
0.0102702 
0.0191614 
0.0370164 
0.0166331 
0.0313147 
0.01321 
0.0089832 
0.0234293 
0.0165499 
0.0041606 
0.0250034 
0.0242548 
0.0153304 
0.0257763 
0.0407603 
0.018697 
0.0140991 
0.0250095 
0.023308 
0.0506765 
0.0155704 
0.0277426 
0.0251321 
0.0196923 
0.012545 
0.0237781 
0.0149566 
0.0186983 
0.0233099 
0.0368633 
0.0230809 
0.0388124 
0.0434545 
0.0116956 
0.0227024 
0.0228239 
0.0233511 
0.0172535 
0.051408 
0.0172521 
0.0446478 
0.028143 
0.0570071 
0.0371324 
0.0192491 
0.0211285 
0.00802098 
0.0235099 
0.0404736 
0.0149376 
0.0236868 
0.0189857 
0.0103731 
0.0323119 
0.0268798 
0.0100591 
0.0232712 
0.0190582 
0.0264253 
0.0319021 
0.0275037 
0.0313695 
0.0157524 
0.00673063 
0.0236295 
0.0288722 
0.0227708 
0.0189516 
0.0275497 
0.0277295 
0.0241807 
0.0207394 
0.0402408 
0.0403703 
0.0246901 
0.0478988 
0.0134687 
0.0283655 
0.017975 
0.00981782 
0.0296189 
0.0315346 
0.0285911 
0.0289372 
0.0344483 
0.0183907 
0.0217292 
0.0231235 
0.0363067 
0.0286864 
0.0304392 
0.0150969 
0.0219987 
0.0294814 
0.0204916 
0.0101195 
0.0321251 
0.0149727 
0.0202593 
0.0216535 
0.0258516 
0.0320967 
0.0287997 
0.0200402 
0.031728 
0.0283178 
0.0183426 
0.0355399 
0.0150883 
0.0256553 
0.02559 
0.0333754 
0.0269158 
0.0324807 
0.0595189 
0.0589566 
0.0215477 
0.00557092 
0.0170797 
0.0282677 
0.0109318 
0.0128457 
0.0217661 
0.0302635 
0.0373782 
0.0420338 
0.0207879 
0.027842 
0.0125174 
0.0198218 
0.0291274 
0.0306479 
0.0354843 
0.058044 
0.0441091 
0.018016 
0.0154393 
0.0408734 
0.0330345 
0.00869769 
0.0406493 
0.0134483 
0.0297878 
0.0142631 
0.0289667 
0.0062495 
0.0168109 
0.0420387 
0.0247304 
0.0340756 
0.0237818 
0.0340464 
0.0201431 
0.0315136 
0.0185428 
0.0287792 
0.0245574 
0.0183084 
0.00541653 
0.0470863 
0.0496091 
0.0361085 
0.0203661 
0.0463434 
0.00839603 
0.0244208 
0.0537055 
0.0351113 
0.032232 
0.0464086 
0.0348847 
0.046669 
0.0182198 
0.0162193 
0.0208139 
0.047156 
0.0284706 
0.0190955 
0.0488326 
0.0318424 
0.0391853 
0.0388876 
0.0243022 
0.0296945 
0.0165645 
0.00408646 
0.026571 
0.0201603 
0.0298123 
0.0389568 
0.0304188 
0.0345794 
0.0196164 
0.0464632 
0.0456344 
0.0142082 
0.0406555 
0.0367206 
0.0316099 
0.0460417 
0.040571 
0.0219437 
0.0430784 
0.0417996 
0.0287357 
0.0251093 
0.0417942 
0.0460675 
0.0420127 
0.0356966 
0.0329737 
0.0700241 
0.0186989 
0.0121017 
0.0273337 
0.0310123 
0.0429265 
0.0221668 
0.0315033 
0.0176482 
0.0111752 
0.0420718 
0.0241046 
0.0333746 
0.0382086 
0.033342 
0.0394937 
0.0128047 
0.00665819 
0.00988024 
0.0482246 
0.0454652 
0.0616899 
0.0170358 
0.0227406 
0.0420069 
0.0277118 
0.0226177 
0.00983474 
0.019417 
0.0219447 
0.0404438 
0.0363334 
0.0277602 
0.0287352 
0.0398167 
0.0194906 
0.0231562 
0.028277 
0.0180283 
0.0259204 
0.012355 
0.0176059 
0.0259239 
0.016264 
0.0247419 
0.0265583 
0.0181468 
0.03339 
0.0318419 
0.0410183 
0.0869248 
0.0398809 
0.035631 
0.0206715 
0.0436288 
0.0126806 
0.030705 
0.0212641 
0.010456 
0.0136658 
0.0148382 
0.0368009 
0.0205925 
0.0384081 
0.0386976 
0.0299071 
0.0239118 
0.0365502 
0.0188547 
0.0224865 
0.0149365 
0.0110872 
0.018775 
0.0426645 
0.0344273 
0.0493896 
0.0198004 
0.0256451 
0.0329475 
0.0356104 
0.0212746 
0.0268498 
0.0300523 
0.0258724 
0.0255009 
0.0166321 
0.00591735 
0.0348763 
0.0206848 
0.044387 
0.032945 
0.03545 
0.0150546 
0.0186348 
0.0242791 
0.0115053 
0.0296193 
0.0256778 
0.0161473 
0.0312533 
0.025355 
0.0346218 
0.0350187 
0.0467918 
0.02611 
0.00935308 
0.0267304 
0.0264604 
0.045314 
0.03301 
0.0175499 
0.0311003 
0.0109844 
0.0156795 
0.0188201 
0.0314387 
0.0208206 
0.0217912 
0.0290022 
0.0468771 
0.0181375 
0.0267761 
0.0455632 
0.042587 
0.0318169 
0.0164584 
0.0217748 
0.0459643 
0.0372944 
0.0240467 
0.00571398 
0.0243169 
0.00981126 
0.0154689 
0.00699159 
0.00930056 
0.0269577 
0.0211521 
0.0135692 
0.0326641 
0.0292723 
0.0252753 
0.0246869 
0.0288339 
0.00943407 
0.0219618 
0.0190427 
0.0326617 
0.019359 
0.0288292 
0.0079423 
0.0324182 
0.0309058 
0.022664 
0.0314572 
0.0202459 
0.011805 
0.0218502 
0.0358009 
0.023414 
0.0425068 
0.0198458 
0.0219402 
0.0203337 
0.023201 
0.033452 
0.0194734 
0.0176145 
0.00954908 
0.0301419 
0.0199599 
0.0130996 
0.0340166 
0.0183816 
0.0292718 
0.028657 
0.0151551 
0.0235114 
0.0363658 
0.0487833 
0.0248315 
0.0410633 
0.00954631 
0.0175963 
0.0399729 
0.00704584 
0.0187523 
0.0222207 
0.0157211 
0.0213369 
0.0225921 
0.0123493 
0.0226717 
0.0301364 
0.0375779 
0.0103048 
0.0429917 
0.0283777 
0.0252671 
0.0408217 
0.0196068 
0.0219861 
0.0178372 
0.0242537 
0.0329743 
0.0369915 
0.0218308 
0.0264443 
0.0708866 
0.031166 
0.0150294 
0.0183558 
0.029048 
0.0425337 
0.0440301 
0.0310104 
0.016462 
0.0178301 
0.0368242 
0.05093 
0.0338366 
0.0229848 
0.047669 
0.0335788 
0.0378335 
0.0196189 
0.0378013 
0.0232071 
0.0267404 
0.0249242 
0.0167768 
0.0358209 
0.0141843 
0.0426067 
0.00914411 
0.0222314 
0.0143399 
0.0108802 
0.0223101 
0.0195586 
0.0454709 
0.0253487 
0.0422812 
0.0166327 
0.00285311 
0.0278961 
0.0147709 
0.0258657 
0.0262559 
0.0184649 
0.0156747 
0.0243013 
0.0124648 
0.0118949 
0.0186858 
0.0223199 
0.0253 
0.023813 
0.0268747 
0.0091326 
0.0139043 
0.034591 
0.0320422 
0.0243125 
0.0392821 
0.0453511 
0.055452 
0.0152991 
0.0112983 
0.00861028 
0.0442122 
0.0260926 
0.0403489 
0.0202536 
0.0147244 
0.0203523 
0.0504726 
0.0110998 
0.023179 
0.0191601 
0.0369727 
0.0200373 
0.0270904 
0.0122172 
0.0557131 
0.0198492 
0.0435335 
0.0458364 
0.0145087 
0.0302937 
0.0150319 
0.0176868 
0.0198058 
0.0197827 
0.0172562 
0.020977 
0.023881 
0.0313213 
0.0175614 
0.0516862 
0.0400446 
0.0166138 
0.0283114 
0.0261767 
0.0296457 
0.0283412 
0.0404014 
0.0462446 
0.0209827 
0.0361811 
0.0257556 
0.0294327 
0.00997217 
0.015523 
0.0323269 
0.0316627 
0.0219844 
0.0463365 
0.0399723 
0.0195003 
0.0158573 
0.0455682 
0.0132368 
0.0484713 
0.0127444 
0.0264628 
0.0160025 
0.0371973 
0.0176367 
0.0388765 
0.0352561 
0.00714276 
0.0202804 
0.0294306 
0.0279235 
0.0363847 
0.0365459 
0.0411353 
0.0411923 
0.0222059 
0.029633 
0.0459849 
0.0158843 
0.0187662 
0.0229628 
0.0130208 
0.0506094 
0.0255201 
0.0243463 
0.034762 
0.0251679 
0.0220305 
0.0147311 
0.00550793 
0.0357375 
0.0231029 
0.0305885 
0.0437656 
0.0379454 
0.0101742 
0.0197596 
0.0119535 
0.0124809 
0.0404404 
0.009463 
0.0183735 
0.0288697 
0.0199722 
0.0179272 
0.0419945 
0.0457898 
0.0341977 
0.0162957 
0.0391931 
0.0214294 
0.0349382 
0.0239781 
0.0502698 
0.0235914 
0.030344 
0.0362678 
0.0234342 
0.0478565 
0.0125842 
0.0223505 
0.0284623 
0.0237673 
0.0338671 
0.0259695 
0.0413519 
0.0244418 
0.0229705 
0.0572387 
0.0532718 
0.0348566 
0.0301072 
0.0154603 
0.0120601 
0.0351746 
0.0296615 
0.0141946 
0.0233677 
0.0351235 
0.0348245 
0.011543 
0.0120034 
0.0203746 
0.0286596 
0.0195992 
0.0202685 
0.0326849 
0.0355962 
0.0152582 
0.0237965 
0.0212153 
0.0367357 
0.0556209 
0.0280562 
0.0108943 
0.0303647 
0.0237397 
0.0419248 
0.0354677 
0.0203947 
0.0280833 
0.0288278 
0.035564 
0.0150314 
0.0145201 
0.0175153 
0.00754709 
0.0382831 
0.0285931 
0.03165 
0.015762 
0.00945509 
0.0152294 
0.0233337 
0.0149624 
0.0200265 
0.0247453 
0.0352875 
0.0371656 
0.0228572 
0.0321114 
0.0207958 
0.0301514 
0.0334103 
0.0210053 
0.0304172 
0.0396643 
0.00623015 
0.0176257 
0.0497324 
0.024356 
0.0105173 
0.00630484 
0.0365512 
0.0206944 
0.0378547 
0.0113018 
0.0509876 
0.0335687 
0.0309206 
0.0302783 
0.043037 
0.0251477 
0.0261273 
0.0280805 
0.0200652 
0.0454173 
0.0220886 
0.0144303 
0.011918 
0.0401411 
0.0143635 
0.0395467 
0.0420554 
0.0309272 
0.0105879 
0.0324238 
0.0218357 
0.0206367 
0.0427964 
0.0328555 
0.0349052 
0.0417247 
0.0154118 
0.0176981 
0.0151673 
0.0167335 
0.0320416 
0.00516978 
0.0179226 
0.0307203 
0.0136204 
0.0256564 
0.0411648 
0.0393602 
0.0357841 
0.0244557 
0.0200275 
0.00974642 
0.0251893 
0.0224793 
0.0179516 
0.0306152 
0.0331504 
0.0305766 
0.0206642 
0.0418654 
0.0173359 
0.00725959 
0.0672841 
0.0198723 
0.0198511 
0.0331716 
0.035799 
0.060207 
0.0191719 
0.0153991 
0.0284574 
0.0372691 
0.0333316 
0.0320604 
0.022073 
0.0306492 
0.0250376 
0.0181766 
0.0277871 
0.0356128 
0.0233337 
0.0208139 
0.00931643 
0.0196431 
0.0291891 
0.0205128 
0.0198385 
0.0118124 
0.00477924 
0.0136296 
0.02578 
0.0345706 
0.0348672 
0.0172598 
0.00512117 
0.020108 
0.0376339 
0.0331733 
0.0205609 
0.0299552 
0.0566587 
0.0235167 
0.0208439 
0.0351401 
0.0181004 
0.02507 
0.0281714 
0.00945991 
0.00910307 
0.0327969 
0.00913775 
0.0111937 
0.0247209 
0.0126584 
0.0280901 
0.0537252 
0.0287017 
0.0281192 
0.017901 
0.0336222 
0.0185424 
0.0377147 
0.00363599 
0.0320928 
0.041526 
0.032956 
0.0220905 
0.00673135 
0.032648 
0.0388749 
0.024783 
0.0270447 
0.0243194 
0.0117611 
0.0413202 
0.0343099 
0.0527888 
0.0154228 
0.00806108 
0.0598423 
0.0239133 
0.022776 
0.0366775 
0.0123023 
0.0298386 
0.00663549 
0.0296074 
0.0281537 
0.00993038 
0.0257473 
0.0492268 
0.0383351 
0.013655 
0.0171692 
0.0251121 
0.0216904 
0.0222225 
0.0326146 
0.0241836 
0.0483543 
0.0438559 
0.0430066 
0.0290651 
0.0153603 
0.0288241 
0.0165834 
0.0399869 
0.0278536 
0.0160545 
0.0377582 
0.0412005 
0.0149314 
0.0128263 
0.0297303 
0.023738 
0.0208244 
0.0174578 
0.00793694 
0.0148584 
0.0465294 
0.0496143 
0.0223999 
0.018031 
0.0207651 
0.0305199 
0.02092 
0.0274981 
0.0224407 
0.0405778 
0.0114904 
0.0261478 
0.00702073 
0.0267575 
0.0244903 
0.0352671 
0.0284916 
0.0162689 
0.0326914 
0.0131093 
0.0146161 
0.0283512 
0.0111007 
0.0508342 
0.0182433 
0.0340132 
0.0225178 
0.0349313 
0.00997444 
0.0371395 
0.0170903 
0.0248892 
0.00561307 
0.0171828 
0.0370713 
0.0331247 
0.00660572 
0.0236519 
0.0122346 
0.0201452 
0.0395248 
0.0350658 
0.0191953 
0.0137164 
0.0328929 
0.0167855 
0.0305511 
0.0438448 
0.0243594 
0.0179795 
0.031096 
0.0143759 
0.0188031 
0.0352754 
0.0309181 
0.0313908 
0.0322567 
0.00756787 
0.0523011 
0.0144706 
0.0619302 
0.0206199 
0.0426667 
0.025119 
0.0496589 
0.029327 
0.0450576 
0.0331747 
0.0178755 
0.0319058 
0.026335 
0.0334978 
0.0247233 
0.0616412 
0.0340727 
0.0269703 
0.0268713 
0.0225711 
0.0151375 
0.0416455 
0.039721 
0.0259219 
0.0316674 
0.0401756 
0.00765235 
0.00472876 
0.0059387 
0.0285568 
0.0379722 
0.0324535 
0.0263256 
0.0347451 
0.0275469 
0.0129292 
0.0241088 
0.0125636 
0.0129384 
0.0259643 
0.012394 
0.0224688 
0.0137583 
0.0221838 
0.0402848 
0.00885587 
0.0204319 
0.0385766 
0.0227197 
0.0252606 
0.0144577 
0.0267543 
0.0301515 
0.0431306 
0.0240045 
0.0135649 
0.0154952 
0.0350581 
0.0234479 
0.0210898 
0.0554983 
0.0220897 
0.0176157 
0.0154967 
0.0249913 
0.0112468 
0.0440931 
0.0266019 
0.0347875 
0.0569507 
0.0423049 
0.0350247 
0.0122966 
0.0457236 
0.0148108 
0.0387379 
0.0221128 
0.020068 
0.0102976 
0.0352562 
0.0247178 
0.0169679 
0.0164557 
0.0248415 
0.0639471 
0.034064 
0.015982 
0.0494485 
0.00732491 
0.0345075 
0.0264174 
0.0237666 
0.0542989 
0.0182301 
0.025705 
0.0209192 
0.020817 
0.020784 
0.0333409 
0.0405171 
0.0285194 
0.0337595 
0.0103306 
0.0347584 
0.0531452 
0.0233734 
0.039373 
0.0238484 
0.0276175 
0.0338395 
0.026629 
0.0354859 
0.0258676 
0.0313557 
0.00519895 
0.0493396 
0.0399893 
0.0419641 
0.0392388 
0.0422202 
0.0366195 
0.0269489 
0.0118891 
0.037465 
0.0210213 
0.0262323 
0.0377867 
0.0464669 
0.0178212 
0.0347336 
0.0165656 
0.0280525 
0.0461522 
0.0229952 
0.0157711 
0.013383 
0.0183904 
0.00947435 
0.0161299 
0.029199 
0.0235684 
0.0194014 
0.040106 
0.0340628 
0.0449549 
0.0184423 
0.0210487 
0.0280213 
0.0256701 
0.0483654 
0.0224016 
0.0242378 
0.0211201 
0.0422045 
0.0412387 
0.0324071 
0.0335007 
0.0314818 
0.0107608 
0.0492537 
0.026363 
0.0235352 
0.0438911 
0.0633248 
0.0359431 
0.0284976 
0.015737 
0.0186762 
0.0163036 
0.0344413 
0.0186595 
0.0172682 
0.021198 
0.0169882 
0.00867337 
0.0334854 
0.0548118 
0.0228755 
0.0145725 
0.0173408 
0.0302896 
0.0171826 
0.00857396 
0.0133021 
0.0260582 
0.0434489 
0.0217657 
0.0186 
0.0316731 
0.0497607 
0.0180246 
0.0339622 
0.0462531 
0.0270202 
0.0206574 
0.031777 
0.0424256 
0.0244608 
0.046514 
0.0338655 
0.0330123 
0.0196323 
0.0312065 
0.0137961 
0.0354538 
0.01432 
0.0312303 
0.0234491 
0.038185 
0.0329994 
0.0268836 
0.0195987 
0.0247389 
0.0234697 
0.0366363 
0.020314 
0.025495 
0.0403743 
0.0352226 
0.0320089 
0.052579 
0.0221443 
0.039645 
0.0346449 
0.0220681 
0.0289637 
0.039445 
0.0320388 
0.00701738 
0.0295175 
0.0462374 
0.0160359 
0.0263842 
0.0350287 
0.0212079 
0.0429442 
0.0159696 
0.0388208 
0.0213969 
0.0162852 
0.0219852 
0.0429976 
0.0222565 
0.0236266 
0.0531163 
0.0263617 
0.0114976 
0.0127576 
0.0218753 
0.0354613 
0.0191709 
0.0314865 
0.0430546 
0.024089 
0.0157642 
0.0411317 
0.0377838 
0.0269081 
0.0277642 
0.0183758 
0.0123278 
0.0201454 
0.0331799 
0.0185102 
0.0247687 
0.00751461 
0.0231202 
0.0306261 
0.0368566 
0.0391123 
0.0268424 
0.0293386 
0.0267873 
0.0206472 
0.0206654 
0.0168152 
0.0240863 
0.0350734 
0.0224192 
0.0242257 
0.0439095 
0.0311174 
0.023778 
0.0172122 
0.02999 
0.0160188 
0.0185752 
0.0195525 
0.0293828 
0.0424607 
0.0141606 
0.0329146 
0.0186218 
0.0222351 
0.0136012 
0.0218167 
0.0408604 
0.0331977 
0.00693266 
0.0231525 
0.0274732 
0.0401636 
0.0309542 
0.0273867 
0.0180489 
0.0444573 
0.0301467 
0.0193294 
0.0330353 
0.0290205 
0.00831496 
0.0279537 
0.022295 
0.0190839 
0.0262627 
0.00700248 
0.0144449 
0.0340387 
0.0251088 
0.0377046 
0.0123947 
0.0460394 
0.0438765 
0.0206557 
0.040071 
0.0217235 
0.0264995 
0.0119713 
0.026217 
0.012863 
0.0216708 
0.0207036 
0.0215488 
0.0123152 
0.0103255 
0.0407186 
0.0229544 
0.0251809 
0.0124479 
0.012207 
0.0398543 
0.0452674 
0.030763 
0.0286153 
0.0350792 
0.036907 
0.012497 
0.0071873 
0.017789 
0.0120895 
0.0215564 
0.0285666 
0.0176673 
0.0262252 
0.0306571 
0.0299673 
0.028124 
0.029304 
0.0477571 
0.0587266 
0.038713 
0.0207211 
0.0247768 
0.0246261 
0.0138457 
0.0381407 
0.024348 
0.0301322 
0.0263994 
0.0241146 
0.047289 
0.0262364 
0.0180187 
0.038304 
0.0478089 
0.0393721 
0.0191008 
0.0345046 
0.0149919 
0.0208397 
0.0309013 
0.0206847 
0.0218245 
0.0101855 
0.0360793 
0.0259508 
0.0321974 
0.0284634 
0.0389995 
0.0432616 
0.0221378 
0.0213613 
0.0401008 
0.0421167 
0.01685 
0.0233737 
0.0168175 
0.0409258 
0.0411498 
0.0325892 
0.0355832 
0.0430006 
0.015128 
0.0237931 
0.00107506 
0.00956979 
0.0398367 
0.0446735 
0.0248052 
0.0419733 
0.0256416 
0.0313903 
0.041735 
0.0195775 
0.0387145 
0.0248527 
0.0141673 
0.0328426 
0.0115223 
0.0187186 
0.0262115 
0.0239466 
0.0244242 
0.0222421 
0.0192514 
0.0283986 
0.0187478 
0.0225064 
0.0267256 
0.0109351 
0.0170661 
0.0380285 
0.0205423 
0.0359153 
0.0193643 
0.0643742 
0.03411 
0.0405743 
0.0387761 
0.0298023 
0.0410536 
0.0314797 
0.0354991 
0.0465446 
0.0342769 
0.0280994 
0.027715 
0.0452288 
0.0174039 
0.0275836 
0.0458646 
0.0300988 
0.0070847 
0.0127331 
0.0257265 
0.0287989 
0.017112 
0.0394132 
0.0132121 
0.0316277 
0.0178191 
0.025641 
0.0151857 
0.0179783 
0.00997415 
0.0320708 
0.0361304 
0.0539308 
0.0326673 
0.027203 
0.021216 
0.0228566 
0.0133559 
0.015398 
0.0462817 
0.0282368 
0.0359434 
0.028784 
0.0158408 
0.0366269 
0.027164 
0.0373055 
0.032217 
0.0300564 
0.0188217 
0.0205689 
0.0119235 
0.0303362 
0.0204386 
0.0222658 
0.0319308 
0.0331946 
0.0485514 
0.0251423 
0.0422095 
0.0419131 
0.0230688 
0.0178834 
0.0616864 
0.0300241 
0.0459584 
0.0419773 
0.0344819 
0.0172358 
0.0193668 
0.0227697 
0.0369163 
0.0123953 
0.0194841 
0.0290751 
0.014539 
0.0254573 
0.0398289 
0.0415956 
0.0337314 
0.0218373 
0.0215443 
0.00878836 
0.035636 
0.0442876 
0.0426713 
0.0267331 
0.0386333 
0.0260294 
0.0185156 
0.0325422 
0.0228298 
0.0329439 
0.0341444 
0.0250026 
0.0172138 
0.02475 
0.0277228 
0.0392472 
0.0236366 
0.0246177 
0.00590603 
0.0322083 
0.020332 
0.0355677 
0.022821 
0.03192 
0.0433526 
0.0286551 
0.0303419 
0.033794 
0.0470491 
0.0113859 
0.0164868 
0.0279401 
0.0382437 
0.0424273 
0.047725 
0.026525 
0.0223729 
0.022493 
0.0244462 
0.0244528 
0.016912 
0.0414993 
0.032929 
0.0167247 
0.0268974 
0.0147688 
0.026971 
0.0383543 
0.0181052 
0.031446 
0.0388106 
0.0281698 
0.0395969 
0.0383632 
0.0343535 
0.0480276 
0.0371062 
0.0241052 
0.0223108 
0.0272436 
0.0159738 
0.02822 
0.0443401 
0.0403597 
0.042868 
0.053901 
0.0302322 
0.018136 
0.0123901 
0.0370121 
0.00820329 
0.0283968 
0.0361913 
0.0373542 
0.0461363 
0.0342564 
0.0156443 
0.0274639 
0.0578942 
0.0235818 
0.02326 
0.0472156 
0.0475655 
0.0320391 
0.0242363 
0.0314667 
0.0160845 
0.0227043 
0.0192613 
0.0306262 
0.0392144 
0.0191737 
0.0271747 
0.026543 
0.0221015 
0.0132111 
0.0261226 
0.0305972 
0.0191302 
0.037284 
0.0492005 
0.0249546 
0.0669624 
0.0260211 
0.040194 
0.0257915 
0.0221113 
0.0249752 
0.0206158 
0.0277889 
0.0316887 
0.00690569 
0.0282814 
0.0295809 
0.0200921 
0.0338645 
0.0577373 
0.0481755 
0.0345288 
0.0202112 
0.0198166 
0.0646215 
0.0133573 
0.020946 
0.0313587 
0.0212282 
0.0322383 
0.01352 
0.0193905 
0.0155833 
0.0128782 
0.0408295 
0.0169332 
0.0290252 
0.018837 
0.0497368 
0.030599 
0.0287533 
0.0323079 
0.0304455 
0.0312432 
0.037327 
0.0320208 
0.0346602 
0.0413844 
0.0115263 
0.050248 
0.043888 
0.0340309 
0.0400263 
0.0374965 
0.0330415 
0.0190744 
0.0344487 
0.0326285 
0.0521464 
0.0278617 
0.0174671 
0.0356168 
0.054629 
0.016588 
0.0150477 
0.0263553 
0.0254255 
0.0225728 
0.0204356 
0.0165648 
0.011614 
0.0245643 
0.0104788 
0.0294145 
0.0319516 
0.0360456 
0.0214421 
0.0271523 
0.0501309 
0.0321528 
0.0106087 
0.0265398 
0.0254846 
0.0126272 
0.0264919 
0.0168192 
0.00894977 
0.0553172 
0.0254553 
0.0292603 
0.0297808 
0.0210455 
0.00619951 
0.0193421 
0.00974562 
0.0511965 
0.0375669 
0.0520982 
0.0158788 
0.0363818 
0.0290591 
0.0270334 
0.0542781 
0.0206545 
0.0197932 
0.0264727 
0.0202538 
0.0317179 
0.0191161 
0.0198625 
0.0279461 
0.0180166 
0.0076382 
0.0414 
0.0272342 
0.0215755 
0.0156159 
0.031519 
0.0276772 
0.0392477 
0.022727 
0.0201484 
0.0292911 
0.0317462 
0.0525628 
0.0419829 
0.0154965 
0.0192429 
0.0461018 
0.0175517 
0.014693 
0.00879411 
0.0186674 
0.0344864 
0.0356937 
0.0184716 
0.027878 
0.0355147 
0.0281905 
0.0230425 
0.0240621 
0.0296655 
0.051986 
0.0118726 
0.012162 
0.017602 
0.0162478 
0.0394547 
0.0282691 
0.0414879 
0.0279649 
0.018182 
0.041628 
0.0456644 
0.0257757 
0.0409516 
0.016493 
0.0163477 
0.0217526 
0.0288073 
0.0255412 
0.0441863 
0.0229746 
0.0226133 
0.0212445 
0.0196133 
0.0232889 
0.0518208 
0.0202703 
0.0200451 
0.0234965 
0.0169077 
0.0201654 
0.0193076 
0.0270646 
0.0182854 
0.0393659 
0.00426907 
0.0385254 
0.00902034 
0.0261582 
0.0534651 
0.0155409 
0.0276666 
0.021643 
0.0128065 
0.0573423 
0.0354421 
0.0224279 
0.0488043 
0.0323825 
0.0211448 
0.0386062 
0.0380579 
0.0110869 
0.0347138 
0.0458871 
0.0262262 
0.0143926 
0.0255935 
0.0211508 
