ITEM: TIMESTEP
700
ITEM: NUMBER OF ATOMS
2048
ITEM: BOX BOUNDS pp pp pp
0 10.9855
0 10.9855
0 10.9855
ITEM: ATOMS c_displacement[4] 
0.0363053 
0.0500654 
0.0479451 
0.0236202 
0.0346887 
0.0302124 
0.00784657 
0.0139609 
0.015514 
0.0335137 
0.0129034 
0.0252304 
0.0173034 
0.024322 
0.0363422 
0.0121395 
0.0253032 
0.0443538 
0.0324549 
0.0371644 
0.0137209 
0.0254471 
0.0337718 
0.0462831 
0.0378113 
0.0421887 
0.0264698 
0.0207692 
0.0447383 
0.0296112 
0.0478925 
0.0345428 
0.0380092 
0.0201902 
0.0266644 
0.0466469 
0.0451581 
0.0332407 
0.0549245 
0.0569483 
0.00694433 
0.0419839 
0.0389279 
0.0245899 
0.0366214 
0.0520604 
0.0146962 
0.00901753 
0.020018 
0.0285975 
0.0302306 
0.0162238 
0.0276845 
0.0155082 
0.0251986 
0.0196537 
0.0395113 
0.0366142 
0.0434433 
0.0279368 
0.0232392 
0.0116198 
0.0211275 
0.00922947 
0.0107322 
0.0249658 
0.0388835 
0.0473745 
0.0379783 
0.043968 
0.0298454 
0.0292523 
0.025609 
0.0148298 
0.0275011 
0.017788 
0.0326347 
0.0305608 
0.0180201 
0.0179109 
0.00993876 
0.00822212 
0.0196586 
0.0309116 
0.0313487 
0.0171159 
0.0269944 
0.0496429 
0.0232061 
0.0207419 
0.0355462 
0.0333261 
0.0206651 
0.0468063 
0.0259103 
0.018585 
0.0187686 
0.0103409 
0.0359464 
0.0330987 
0.0240822 
0.012604 
0.0128778 
0.0260445 
0.029601 
0.0249377 
0.0414395 
0.0156078 
0.0245136 
0.0222941 
0.0282676 
0.0234182 
0.0290636 
0.0347791 
0.0313715 
0.0187086 
0.0280313 
0.0394518 
0.0266847 
0.0156553 
0.0269169 
0.0323701 
0.0110177 
0.00916452 
0.0357112 
0.0551481 
0.04886 
0.0276894 
0.0179746 
0.0133267 
0.0320997 
0.0404315 
0.020178 
0.0245079 
0.0179409 
0.0518077 
0.017181 
0.0392347 
0.058325 
0.0113277 
0.0393568 
0.0322173 
0.0297948 
0.0525969 
0.0570042 
0.0476053 
0.0121869 
0.0192033 
0.029055 
0.0131163 
0.0278062 
0.0152525 
0.0160364 
0.0287999 
0.0344502 
0.0392827 
0.0440084 
0.0213469 
0.0260858 
0.0303001 
0.0397597 
0.0253326 
0.0116944 
0.0347099 
0.0465342 
0.0273056 
0.0211621 
0.0429425 
0.0338135 
0.0374149 
0.0296792 
0.0280483 
0.0380145 
0.034636 
0.0160406 
0.0619781 
0.0311961 
0.0410139 
0.0244014 
0.0349658 
0.0360887 
0.0366542 
0.0208734 
0.0351628 
0.0126343 
0.0207296 
0.0128517 
0.0132255 
0.00810429 
0.0325624 
0.0350494 
0.0423695 
0.0320789 
0.0265976 
0.0371425 
0.0234276 
0.0186027 
0.0232705 
0.0131073 
0.04385 
0.0533941 
0.032319 
0.0536652 
0.0301488 
0.0151336 
0.00400066 
0.0173106 
0.0268518 
0.0224229 
0.0405865 
0.0370491 
0.0234443 
0.0401704 
0.0261376 
0.0394093 
0.0227499 
0.0668704 
0.0253573 
0.0355824 
0.0228519 
0.0160295 
0.0106287 
0.0171977 
0.0177385 
0.0333399 
0.00652838 
0.0266884 
0.0492532 
0.0296918 
0.0187507 
0.0265818 
0.0124037 
0.0347317 
0.0137174 
0.0594765 
0.0447176 
0.030971 
0.0368236 
0.0302541 
0.0516309 
0.0277238 
0.0203447 
0.0264916 
0.00773126 
0.0169245 
0.0315 
0.0128218 
0.0169025 
0.0184822 
0.0287994 
0.0294051 
0.00964607 
0.029519 
0.0495111 
0.0432818 
0.0328864 
0.0310669 
0.0565331 
0.0318605 
0.0152417 
0.0482768 
0.0164226 
0.0309205 
0.0170602 
0.0146776 
0.0241236 
0.0166513 
0.033245 
0.0270116 
0.0236636 
0.0166414 
0.0319959 
0.0526502 
0.00220987 
0.00511383 
0.0190218 
0.0288861 
0.0162929 
0.021003 
0.0106106 
0.0109333 
0.0174374 
0.0083856 
0.022711 
0.0316838 
0.0399545 
0.0563887 
0.0360941 
0.0232995 
0.0371626 
0.00728949 
0.0232091 
0.0228666 
0.02228 
0.0221123 
0.0401915 
0.0197509 
0.0296813 
0.0247024 
0.0442106 
0.0199207 
0.0381368 
0.0291419 
0.00449382 
0.0235696 
0.0534602 
0.0277884 
0.0233281 
0.0193389 
0.0503672 
0.0197172 
0.0214939 
0.0221655 
0.0433433 
0.0118085 
0.0225273 
0.0299417 
0.0277598 
0.0260025 
0.0280961 
0.0234291 
0.0253519 
0.0163292 
0.0595635 
0.0134636 
0.0358782 
0.0358756 
0.0273048 
0.0410407 
0.0214656 
0.00620976 
0.0263809 
0.0322935 
0.0243135 
0.0312145 
0.0330131 
0.0229475 
0.0428537 
0.0190863 
0.0159733 
0.0527858 
0.0299633 
0.0204551 
0.0216805 
0.0147412 
0.026284 
0.0199136 
0.0293488 
0.0149468 
0.00786352 
0.0208221 
0.0394605 
0.0155121 
0.0194806 
0.0256997 
0.032426 
0.0256792 
0.00948408 
0.0417729 
0.058533 
0.0380089 
0.0284815 
0.0331911 
0.0759666 
0.0426802 
0.0248897 
0.0148479 
0.0195023 
0.0366974 
0.0214796 
0.0151981 
0.0312381 
0.0366281 
0.0128858 
0.0358085 
0.0042731 
0.0338205 
0.0155369 
0.0314791 
0.0140156 
0.0367698 
0.0108989 
0.0289852 
0.0342335 
0.0105703 
0.0248365 
0.0459981 
0.0290602 
0.0274166 
0.0339777 
0.00564106 
0.039442 
0.00963302 
0.022275 
0.0311581 
0.0384476 
0.0462215 
0.0391905 
0.0649285 
0.0370717 
0.0265768 
0.0215738 
0.0162551 
0.0183217 
0.0356659 
0.0501397 
0.00613283 
0.0285539 
0.042571 
0.0113029 
0.0413614 
0.0268726 
0.0177925 
0.0280895 
0.0273245 
0.0156097 
0.0445018 
0.0348564 
0.01231 
0.00990192 
0.0113051 
0.0463043 
0.0453657 
0.0216126 
0.0319517 
0.019842 
0.0079594 
0.0221693 
0.0236277 
0.0179856 
0.0221071 
0.0291816 
0.0240835 
0.026272 
0.0174034 
0.0155686 
0.0106698 
0.0110979 
0.0314021 
0.0257515 
0.0262547 
0.0206598 
0.0332756 
0.0311934 
0.0207231 
0.016415 
0.0295252 
0.0408479 
0.0214811 
0.0371294 
0.0305297 
0.030019 
0.0309219 
0.0261691 
0.026366 
0.0247716 
0.0226041 
0.0149619 
0.0533138 
0.0103497 
0.0256679 
0.0486155 
0.023605 
0.0383183 
0.0307997 
0.0354146 
0.0298837 
0.0201237 
0.0279339 
0.0323088 
0.0389679 
0.0328471 
0.0289746 
0.0326023 
0.0444027 
0.0384611 
0.0174563 
0.0211685 
0.024396 
0.0145208 
0.0600591 
0.028741 
0.0338755 
0.0175872 
0.0322112 
0.0246231 
0.0283113 
0.026172 
0.0130442 
0.0429766 
0.0387451 
0.024303 
0.0520205 
0.0330324 
0.0203569 
0.0206788 
0.0227298 
0.0151151 
0.0291492 
0.0419178 
0.0550725 
0.0260011 
0.0106991 
0.0369879 
0.0769424 
0.0158746 
0.0341531 
0.0246751 
0.0230166 
0.0306504 
0.0247063 
0.0232229 
0.0156167 
0.0225847 
0.0181734 
0.0355208 
0.0429218 
0.019976 
0.0337641 
0.0416538 
0.0139325 
0.0414938 
0.014061 
0.0375357 
0.0276683 
0.0403141 
0.0180281 
0.00326072 
0.0259667 
0.0403463 
0.039582 
0.018969 
0.056316 
0.0448 
0.0238606 
0.0369811 
0.0278688 
0.0382305 
0.00513909 
0.0375014 
0.0303496 
0.0125488 
0.0423356 
0.0215168 
0.0456853 
0.0201578 
0.0275651 
0.0387094 
0.0347451 
0.0257941 
0.0239223 
0.0185527 
0.0376527 
0.0142246 
0.0284626 
0.0290637 
0.0398113 
0.0229331 
0.0117445 
0.0231078 
0.0443354 
0.0302393 
0.051745 
0.0258964 
0.0364777 
0.0310838 
0.0134857 
0.0443322 
0.0118326 
0.0219424 
0.0293555 
0.011755 
0.0281642 
0.0403363 
0.0091157 
0.0228396 
0.0141262 
0.0368455 
0.0301715 
0.0196325 
0.0281627 
0.0197206 
0.0251971 
0.0431808 
0.0170163 
0.0438297 
0.036123 
0.0142156 
0.0200098 
0.0273707 
0.0249491 
0.0362678 
0.0266037 
0.0202389 
0.0383061 
0.0224576 
0.0250181 
0.00721287 
0.0210651 
0.0145174 
0.01076 
0.0409779 
0.0116259 
0.0232762 
0.0163328 
0.024469 
0.030628 
0.0386517 
0.0146567 
0.0234509 
0.0224532 
0.0140807 
0.0344881 
0.0293162 
0.0269021 
0.0170924 
0.0250252 
0.0143643 
0.0286048 
0.0402586 
0.0331231 
0.0328127 
0.0370979 
0.0577591 
0.0291911 
0.0371994 
0.0257902 
0.046426 
0.0244019 
0.00422269 
0.0250364 
0.0465611 
0.0175145 
0.023721 
0.0155027 
0.0238846 
0.0193923 
0.0171604 
0.0188715 
0.0180697 
0.0289796 
0.0263504 
0.0451211 
0.0162259 
0.0438297 
0.0323825 
0.0396024 
0.0153156 
0.00522847 
0.0232594 
0.0313338 
0.0422582 
0.0425463 
0.0240611 
0.0556578 
0.038634 
0.027949 
0.046493 
0.0402834 
0.0232733 
0.0368559 
0.0167073 
0.00771619 
0.0179351 
0.0205269 
0.0168213 
0.0216761 
0.0229563 
0.0335053 
0.0327562 
0.0258512 
0.0105004 
0.00673336 
0.0220163 
0.0202684 
0.0100052 
0.00919415 
0.032377 
0.0181602 
0.010638 
0.0300766 
0.0359926 
0.0400423 
0.0179919 
0.0279225 
0.0232083 
0.0200647 
0.0330887 
0.0259326 
0.0208813 
0.0228377 
0.0119487 
0.0275668 
0.0311767 
0.0332897 
0.0107991 
0.0302615 
0.0431088 
0.0226844 
0.0237034 
0.0323433 
0.0243132 
0.00787292 
0.0210807 
0.00843167 
0.0109418 
0.0182203 
0.00946021 
0.018379 
0.0266632 
0.044723 
0.0345987 
0.0406422 
0.0111481 
0.00650839 
0.0190527 
0.0132291 
0.0224085 
0.0263619 
0.0157297 
0.0242042 
0.0254335 
0.035351 
0.0131856 
0.0253407 
0.0262183 
0.0153308 
0.0278644 
0.0154743 
0.00976664 
0.0322566 
0.0110604 
0.0319267 
0.0301387 
0.0182459 
0.0393505 
0.0219159 
0.00901278 
0.0181153 
0.0190463 
0.0463652 
0.022505 
0.0288147 
0.0455817 
0.0220838 
0.0220985 
0.0348722 
0.0160193 
0.0284497 
0.0287456 
0.00964733 
0.0497101 
0.0125093 
0.0344397 
0.0157143 
0.0228615 
0.0152234 
0.0165594 
0.0306915 
0.0207429 
0.0117507 
0.0223785 
0.0545362 
0.0323943 
0.0463804 
0.018981 
0.0359459 
0.0240226 
0.0159202 
0.0225293 
0.0262095 
0.0173732 
0.0179462 
0.0235921 
0.0209156 
0.0349165 
0.0253215 
0.0222307 
0.0461264 
0.0424006 
0.0157836 
0.0118402 
0.0374197 
0.0365725 
0.00960098 
0.00685511 
0.0331886 
0.0612462 
0.0227377 
0.0123314 
0.0182402 
0.00918786 
0.0174965 
0.0153609 
0.0147471 
0.0276814 
0.0402636 
0.0298298 
0.0238773 
0.027038 
0.0238336 
0.0150632 
0.0160936 
0.035151 
0.0382877 
0.044409 
0.0450768 
0.0254937 
0.0127432 
0.0467036 
0.0317799 
0.0179627 
0.0499861 
0.0089515 
0.013108 
0.0244509 
0.0234698 
0.0273198 
0.00349842 
0.0314992 
0.0195386 
0.0136043 
0.0075542 
0.0154002 
0.0284211 
0.00415573 
0.031744 
0.0535095 
0.0494628 
0.0458158 
0.0757521 
0.0410728 
0.0324256 
0.024416 
0.0470427 
0.0192966 
0.017236 
0.0273155 
0.0342841 
0.0417155 
0.0128046 
0.0429441 
0.0158974 
0.0391446 
0.0335094 
0.0381342 
0.0452536 
0.0330722 
0.0434326 
0.0466221 
0.0488898 
0.0200069 
0.0351446 
0.022446 
0.0408108 
0.0499504 
0.0309292 
0.0223252 
0.0183101 
0.0313505 
0.0272687 
0.0220655 
0.0286111 
0.0272645 
0.0282657 
0.0358184 
0.0173124 
0.0130847 
0.0302468 
0.0174062 
0.0431069 
0.0368645 
0.0143461 
0.0347193 
0.0388649 
0.00685233 
0.0343733 
0.0239709 
0.0175488 
0.0253079 
0.0236355 
0.0192244 
0.0270262 
0.0221584 
0.0359701 
0.0155047 
0.0322498 
0.0279958 
0.0355639 
0.0363558 
0.0547425 
0.0302697 
0.0130531 
0.0316115 
0.0400162 
0.029912 
0.0377343 
0.0239988 
0.0301942 
0.0224271 
0.0417444 
0.0109515 
0.0288524 
0.0154593 
0.0155307 
0.0471554 
0.0148689 
0.0582925 
0.0574936 
0.0120639 
0.0453483 
0.0333498 
0.0304245 
0.017761 
0.00694261 
0.036033 
0.0318653 
0.0292291 
0.0144073 
0.0250313 
0.017639 
0.0267991 
0.0362293 
0.0242886 
0.0277405 
0.0173459 
0.0528919 
0.0359226 
0.0222778 
0.0486882 
0.0349754 
0.0317639 
0.0387619 
0.027016 
0.0304036 
0.0234587 
0.026952 
0.0356543 
0.0293097 
0.0630711 
0.0271794 
0.0210684 
0.00446439 
0.0191583 
0.0200521 
0.00986169 
0.0310684 
0.0244491 
0.0262507 
0.0561992 
0.0410064 
0.030244 
0.0243468 
0.0143009 
0.0349278 
0.0284342 
0.024404 
0.0218291 
0.0336626 
0.0227905 
0.027015 
0.014614 
0.0355355 
0.0123619 
0.0167878 
0.0536881 
0.0250551 
0.04349 
0.0214433 
0.032534 
0.0213157 
0.0203245 
0.00554548 
0.0364073 
0.0333755 
0.0101367 
0.0435962 
0.0272052 
0.0278487 
0.0419584 
0.0195642 
0.0126672 
0.0148294 
0.0347768 
0.0360324 
0.0176004 
0.0126204 
0.0229637 
0.0185195 
0.0291437 
0.04059 
0.0402677 
0.048761 
0.0226621 
0.0168001 
0.0350607 
0.0653512 
0.0434679 
0.0138112 
0.0223128 
0.0241531 
0.0435804 
0.0542833 
0.010844 
0.0542436 
0.028253 
0.0363558 
0.0435646 
0.0239858 
0.0215523 
0.0262295 
0.0339283 
0.0257479 
0.0469083 
0.0139659 
0.0244325 
0.0547424 
0.0228988 
0.0292668 
0.0264376 
0.0282763 
0.0282533 
0.0300939 
0.0330057 
0.03819 
0.00651627 
0.0273201 
0.0402124 
0.0175298 
0.0361394 
0.0373193 
0.0201403 
0.0265165 
0.0306121 
0.0321397 
0.0233778 
0.0207483 
0.0225246 
0.0169896 
0.0215331 
0.0211816 
0.022894 
0.0316622 
0.00749974 
0.0207973 
0.0166584 
0.0372367 
0.0283961 
0.0516509 
0.0207294 
0.0057263 
0.00741536 
0.0226267 
0.0455315 
0.0291032 
0.0280407 
0.0340476 
0.0187563 
0.0216467 
0.0226734 
0.0206015 
0.00888642 
0.0385932 
0.042266 
0.0114052 
0.0405389 
0.0276079 
0.0495504 
0.0238655 
0.0292777 
0.0307594 
0.0219989 
0.0230484 
0.0392672 
0.0341069 
0.024115 
0.0184265 
0.017037 
0.0365599 
0.014025 
0.0140271 
0.0122246 
0.0177555 
0.0153506 
0.0311947 
0.0382538 
0.00801244 
0.0340735 
0.0294212 
0.01981 
0.0407609 
0.0244597 
0.0339708 
0.0289009 
0.0359668 
0.0056746 
0.0230128 
0.0236261 
0.0124183 
0.0155785 
0.0338523 
0.0254246 
0.0187618 
0.0261336 
0.0181611 
0.00805261 
0.0238327 
0.00941171 
0.0468387 
0.038424 
0.0407162 
0.0360932 
0.0142649 
0.0268624 
0.0399932 
0.0109415 
0.0367973 
0.0146093 
0.020532 
0.0356709 
0.0230126 
0.0471825 
0.0461177 
0.0175142 
0.0249852 
0.0533972 
0.0361423 
0.0320982 
0.0502919 
0.0301177 
0.046657 
0.0652975 
0.0407782 
0.0215352 
0.039525 
0.0192552 
0.0408783 
0.0453812 
0.0389884 
0.0407367 
0.0362693 
0.0244642 
0.00632781 
0.0522424 
0.0624081 
0.023387 
0.0287072 
0.0377533 
0.0513259 
0.0292703 
0.0324619 
0.0422742 
0.0452823 
0.0276057 
0.0311785 
0.0215098 
0.0197742 
0.0203014 
0.0215343 
0.02217 
0.0365154 
0.0206036 
0.0552366 
0.0575424 
0.0513903 
0.0444148 
0.0379831 
0.0246073 
0.0210357 
0.0498907 
0.012688 
0.018331 
0.0141941 
0.0331698 
0.0194796 
0.0346383 
0.0295907 
0.0248768 
0.00841524 
0.0189373 
0.0309317 
0.0429739 
0.0124756 
0.024528 
0.0511445 
0.0227866 
0.0358456 
0.0278695 
0.0297161 
0.0317669 
0.0260547 
0.028411 
0.0237299 
0.0118411 
0.0300488 
0.04101 
0.0274855 
0.0154038 
0.0261839 
0.0379291 
0.0300622 
0.0362728 
0.0495977 
0.0439473 
0.0287668 
0.0266176 
0.0335876 
0.0250762 
0.0295822 
0.0318511 
0.0287734 
0.015304 
0.0366801 
0.0248408 
0.0360629 
0.031266 
0.0443306 
0.0306639 
0.041138 
0.0229982 
0.0292043 
0.0571789 
0.0420596 
0.0235173 
0.020563 
0.0228242 
0.02393 
0.0404684 
0.0316596 
0.00661388 
0.0166643 
0.0216815 
0.0303772 
0.0271907 
0.014218 
0.0376944 
0.0382663 
0.0379109 
0.0336188 
0.0381808 
0.0279528 
0.0147624 
0.0297667 
0.0105624 
0.0334344 
0.0384427 
0.0314366 
0.0312863 
0.0273741 
0.030019 
0.0288276 
0.0398322 
0.0254345 
0.0147806 
0.0384973 
0.0225452 
0.0175362 
0.0403301 
0.0165489 
0.0181446 
0.0225512 
0.0426388 
0.0170459 
0.0385173 
0.0406015 
0.0190472 
0.035346 
0.036734 
0.042479 
0.0129037 
0.032403 
0.0233344 
0.0195479 
0.0185653 
0.023318 
0.0363606 
0.0175439 
0.0430132 
0.0269059 
0.0201435 
0.0169749 
0.0338647 
0.018104 
0.0115419 
0.0117605 
0.0275195 
0.0267409 
0.021241 
0.0278826 
0.0494076 
0.0394132 
0.0144817 
0.0194682 
0.0150962 
0.0474763 
0.0169429 
0.0383835 
0.0277515 
0.0217846 
0.0379345 
0.0373363 
0.0184265 
0.0189415 
0.0278087 
0.00176955 
0.0122297 
0.0394449 
0.0134744 
0.0261467 
0.0111174 
0.00623108 
0.0240529 
0.0287219 
0.028235 
0.0223788 
0.0146481 
0.0225306 
0.0339747 
0.0206905 
0.0214658 
0.021487 
0.0356752 
0.0144859 
0.0221905 
0.0207844 
0.0162159 
0.0156619 
0.0459999 
0.0415808 
0.0296072 
0.0336759 
0.0379698 
0.0265214 
0.031014 
0.0141326 
0.0158 
0.028117 
0.0211948 
0.0447199 
0.0212156 
0.0377889 
0.0368055 
0.0119598 
0.0200103 
0.0337232 
0.0130582 
0.00714707 
0.0365146 
0.011591 
0.0113385 
0.011493 
0.0238192 
0.0241603 
0.016469 
0.0331465 
0.0264851 
0.0439158 
0.0435741 
0.0306671 
0.0446634 
0.0197155 
0.0232385 
0.0255431 
0.0451963 
0.0444054 
0.0090175 
0.0423497 
0.0473048 
0.03266 
0.0354857 
0.0336993 
0.0273648 
0.0256721 
0.0271928 
0.0182522 
0.0105118 
0.0178948 
0.00473026 
0.0191591 
0.0134198 
0.0283536 
0.0360052 
0.0232563 
0.0179366 
0.0411836 
0.0108743 
0.0132701 
0.0436297 
0.0212835 
0.0252653 
0.023059 
0.0143649 
0.0233785 
0.0266093 
0.0249244 
0.0224516 
0.0457856 
0.0247597 
0.037696 
0.0187769 
0.0279831 
0.0166646 
0.0361126 
0.0515714 
0.0375971 
0.0277998 
0.030018 
0.0318213 
0.035155 
0.0230311 
0.00532622 
0.0318025 
0.0296258 
0.0309904 
0.01857 
0.0262074 
0.00569559 
0.0274947 
0.0241766 
0.0162823 
0.0350176 
0.0172156 
0.0206507 
0.0396863 
0.0087382 
0.0380343 
0.024286 
0.013867 
0.0296516 
0.0135094 
0.0127292 
0.019598 
0.008786 
0.0275992 
0.021962 
0.0351142 
0.0220033 
0.0274992 
0.0147107 
0.0330911 
0.0219207 
0.0382759 
0.0542793 
0.039287 
0.0282687 
0.0172004 
0.0513671 
0.0392183 
0.019772 
0.0215497 
0.0374487 
0.0177525 
0.0202712 
0.0325454 
0.0170347 
0.0174791 
0.0230239 
0.0141376 
0.0139699 
0.0227773 
0.032229 
0.0319986 
0.0365831 
0.00778606 
0.0196097 
0.0245096 
0.0126073 
0.0441503 
0.0160072 
0.0328566 
0.0201515 
0.030492 
0.0278636 
0.0138458 
0.0200526 
0.012528 
0.0356107 
0.0180641 
0.015637 
0.0311453 
0.0225902 
0.0348299 
0.04089 
0.0312616 
0.0397098 
0.018502 
0.0160777 
0.0341027 
0.0335705 
0.0389022 
0.0140879 
0.0148594 
0.0372961 
0.0318892 
0.00511417 
0.0134657 
0.0295251 
0.021716 
0.0203879 
0.00419163 
0.00846607 
0.0180537 
0.0290758 
0.00866907 
0.0181648 
0.0318206 
0.0391254 
0.0180064 
0.0295977 
0.0343438 
0.0199925 
0.0279994 
0.0163673 
0.0142794 
0.0264979 
0.0135161 
0.0161894 
0.0334884 
0.0374187 
0.0217668 
0.0176079 
0.0165411 
0.0412343 
0.0246798 
0.0213625 
0.00976377 
0.0130174 
0.0365629 
0.0155555 
0.0250179 
0.0424586 
0.0324977 
0.0270521 
0.0332118 
0.0208468 
0.0349952 
0.0207703 
0.0309271 
0.024764 
0.0228045 
0.0252749 
0.0132313 
0.0432115 
0.00610438 
0.0206533 
0.0208776 
0.0293326 
0.0486621 
0.0346659 
0.0180302 
0.0182389 
0.0165799 
0.0221358 
0.01674 
0.022087 
0.0156322 
0.017523 
0.0351319 
0.00771234 
0.0293962 
0.0155849 
0.0316919 
0.0135042 
0.0158801 
0.0119746 
0.0157114 
0.0301186 
0.00558133 
0.0259867 
0.0251313 
0.0174806 
0.0103798 
0.0116263 
0.0119306 
0.0278386 
0.051505 
0.0154227 
0.0458029 
0.0335441 
0.0396973 
0.0213563 
0.0344807 
0.0172145 
0.0246939 
0.0179023 
0.0362012 
0.0346585 
0.0286316 
0.030741 
0.014988 
0.0108584 
0.0250128 
0.0137563 
0.0244231 
0.0372127 
0.0202792 
0.0310159 
0.0286011 
0.0164876 
0.0282481 
0.0238188 
0.0200767 
0.0272982 
0.0418782 
0.0224511 
0.0207295 
0.0274692 
0.0449416 
0.0161102 
0.0215652 
0.0189491 
0.0116643 
0.0349517 
0.033528 
0.0264796 
0.0313811 
0.0300748 
0.038025 
0.0421096 
0.0283222 
0.0232582 
0.0058861 
0.0299561 
0.0298227 
0.0156728 
0.0193955 
0.0237186 
0.0117409 
0.0320448 
0.0152822 
0.0190108 
0.0247489 
0.0174719 
0.0475482 
0.0232836 
0.0268793 
0.0237162 
0.0316747 
0.0177235 
0.014028 
0.0101294 
0.0348159 
0.0344859 
0.0183255 
0.0141624 
0.0404614 
0.00501221 
0.00618892 
0.0275242 
0.0159875 
0.0183013 
0.0219381 
0.0197659 
0.012654 
0.0241522 
0.0501019 
0.0512943 
0.0243303 
0.0250813 
0.0240368 
0.0182775 
0.0359941 
0.0240469 
0.0218274 
0.0284127 
0.0218808 
0.0110041 
0.022197 
0.0283447 
0.0258357 
0.0365578 
0.00195293 
0.0142171 
0.0310354 
0.0275947 
0.0404037 
0.0415471 
0.0464651 
0.0151305 
0.0215443 
0.0313474 
0.00699342 
0.0284142 
0.0353251 
0.0149977 
0.0107357 
0.0142685 
0.0296204 
0.0429654 
0.0315882 
0.0239801 
0.0159235 
0.0117228 
0.0226646 
0.0370736 
0.0067998 
0.0245289 
0.0302498 
0.0471758 
0.0304781 
0.0323538 
0.046098 
0.0271892 
0.016568 
0.0131306 
0.0197302 
0.0179139 
0.0423721 
0.0146283 
0.0155281 
0.0484974 
0.0292108 
0.0236582 
0.0206994 
0.0435326 
0.0238083 
0.0110269 
0.0324853 
0.0333137 
0.0409989 
0.0104304 
0.0282869 
0.0397884 
0.0304795 
0.0364973 
0.0538867 
0.0377457 
0.0361531 
0.047675 
0.0384763 
0.0493133 
0.0278373 
0.00974561 
0.0240654 
0.0240039 
0.0293114 
0.00947368 
0.0234131 
0.00305992 
0.0146789 
0.012091 
0.0189532 
0.0373557 
0.0212986 
0.0318997 
0.0283791 
0.0293374 
0.0491477 
0.0217503 
0.0211419 
0.025881 
0.0277569 
0.0117471 
0.0274823 
0.0504838 
0.0318652 
0.0356479 
0.0369469 
0.0300016 
0.0107283 
0.0586377 
0.0228245 
0.0364607 
0.0137439 
0.0255064 
0.0235357 
0.0463527 
0.0162129 
0.0190526 
0.0314419 
0.0391662 
0.0407157 
0.0547203 
0.0336308 
0.0180467 
0.0245743 
0.0166214 
0.0320575 
0.0400734 
0.0215775 
0.0432854 
0.0374541 
0.0371319 
0.017215 
0.0173752 
0.0332931 
0.017941 
0.0393615 
0.0579389 
0.0259914 
0.014822 
0.0394897 
0.0248595 
0.0135554 
0.0356659 
0.0179667 
0.0242304 
0.0250067 
0.0106294 
0.0207311 
0.0197375 
0.0177082 
0.0192236 
0.0214418 
0.0287826 
0.0370603 
0.0167533 
0.0258599 
0.0140258 
0.0320546 
0.0108009 
0.0563948 
0.0200721 
0.0374486 
0.0263424 
0.0267993 
0.0317714 
0.0666852 
0.042637 
0.0412702 
0.0463881 
0.0418389 
0.0366925 
0.0358938 
0.0223166 
0.0291195 
0.0391603 
0.0196913 
0.034239 
0.0383511 
0.0374778 
0.018045 
0.0327063 
0.0257038 
0.0349753 
0.0463587 
0.0160662 
0.0198338 
0.0185999 
0.0239413 
0.0335265 
0.0207474 
0.032253 
0.0149724 
0.0220327 
0.0408748 
0.0256409 
0.0229504 
0.0177969 
0.0374726 
0.0321591 
0.024382 
0.0296686 
0.0248962 
0.0386744 
0.0418874 
0.0246363 
0.0291487 
0.0109723 
0.0208561 
0.0507118 
0.0295433 
0.028463 
0.0122305 
0.0475498 
0.0245645 
0.0116464 
0.020693 
0.0289796 
0.0169479 
0.0335487 
0.0409058 
0.0403728 
0.0146492 
0.0322352 
0.0370427 
0.0333696 
0.0125544 
0.00644895 
0.0264465 
0.013572 
0.0285669 
0.0159768 
0.0433183 
0.0227057 
0.0320175 
0.0258479 
0.0241806 
0.0324357 
0.0348656 
0.0264592 
0.0190477 
0.0122718 
0.0134706 
0.0260565 
0.0497804 
0.045573 
0.0205604 
0.028514 
0.0318831 
0.0162814 
0.0206089 
0.0147614 
0.0162452 
0.053867 
0.045874 
0.0453555 
0.0437217 
0.0245115 
0.0146418 
0.0483312 
0.03486 
0.00308622 
0.0235083 
0.040684 
0.0161735 
0.0141862 
0.0217237 
0.0264256 
0.0249328 
0.0369925 
0.0278584 
0.0409657 
0.0242589 
0.0369588 
0.038593 
0.0212174 
0.0311406 
0.0231843 
0.0419212 
0.0509658 
0.0520015 
0.03695 
0.00431354 
0.0222079 
0.0218725 
0.0331379 
0.0270513 
0.0369393 
0.0394144 
0.023762 
0.039544 
0.0254435 
0.0192589 
0.0212904 
0.0377115 
0.0210531 
0.0223196 
0.0306962 
0.0330327 
0.0338038 
0.0222857 
0.0457292 
0.0438547 
0.0251922 
0.0319502 
0.0347109 
0.0279631 
0.01473 
0.016798 
0.0356989 
0.0501388 
0.0203526 
0.0169672 
0.0229264 
0.0375796 
0.031449 
0.0306734 
0.0171585 
0.0452718 
0.0100817 
0.0428806 
0.0313621 
0.0327005 
0.0200461 
0.0142923 
0.0213201 
0.0393142 
0.0176605 
0.0266417 
0.0429582 
0.0223929 
0.0185223 
0.0383472 
0.036079 
0.0306645 
0.0153259 
0.0390673 
0.0255795 
0.0205836 
0.0404857 
0.0130933 
0.0216 
0.0103778 
0.0275016 
0.0428952 
0.0423709 
0.0319132 
0.0319146 
0.0363932 
0.0395582 
0.0215261 
0.0277303 
0.0508894 
0.0378532 
0.0371078 
0.0345957 
0.0322845 
0.0294601 
0.0284775 
0.0124393 
0.0262673 
0.0391501 
0.0239773 
0.020662 
0.0165293 
0.0325723 
0.0159615 
0.0275377 
0.0135947 
0.0240957 
0.0334163 
0.0220954 
0.0237242 
0.0240297 
0.0256641 
0.0395071 
0.0286124 
0.00973667 
0.0196844 
0.0259782 
0.0223143 
0.0257989 
0.00660085 
0.0336197 
0.026705 
0.0363568 
0.0273672 
0.0410627 
0.0491389 
0.0247233 
0.0284672 
0.0161543 
0.0223212 
0.0205674 
0.0212302 
0.035324 
0.020086 
