ITEM: TIMESTEP
200
ITEM: NUMBER OF ATOMS
2048
ITEM: BOX BOUNDS pp pp pp
0 10.9855
0 10.9855
0 10.9855
ITEM: ATOMS c_displacement[4] 
0.0345998 
0.0307629 
0.0232843 
0.031911 
0.0271858 
0.0347236 
0.0208504 
0.0255641 
0.0237105 
0.0308883 
0.0330021 
0.0312466 
0.0392807 
0.0269961 
0.0275764 
0.045615 
0.0195206 
0.0219212 
0.0132777 
0.026152 
0.0131598 
0.0297179 
0.00427856 
0.0339846 
0.0110073 
0.032734 
0.0242461 
0.0193878 
0.00619534 
0.0377483 
0.028119 
0.0179038 
0.0243002 
0.0303652 
0.0241616 
0.0170338 
0.0434283 
0.00684602 
0.0179654 
0.0290539 
0.01394 
0.0143927 
0.0180861 
0.0254003 
0.0178231 
0.0412056 
0.0302397 
0.016559 
0.0105361 
0.0243332 
0.0336823 
0.0233469 
0.0434713 
0.0176858 
0.0350643 
0.00830462 
0.0624969 
0.0314261 
0.00481546 
0.0133284 
0.0323633 
0.0274388 
0.0346192 
0.010591 
0.0153521 
0.0218054 
0.0170818 
0.0443498 
0.0197203 
0.0485519 
0.0245976 
0.033604 
0.0320324 
0.0340098 
0.0218513 
0.0512525 
0.03304 
0.0249475 
0.0253112 
0.0416835 
0.0161127 
0.011985 
0.032774 
0.0339796 
0.0257156 
0.0366322 
0.0384034 
0.0257097 
0.0211084 
0.0466168 
0.0338047 
0.0234071 
0.0254879 
0.0184743 
0.0193468 
0.0276588 
0.0330752 
0.0147193 
0.0263916 
0.047909 
0.0294544 
0.0332272 
0.0191547 
0.0238834 
0.0435775 
0.0117973 
0.00888847 
0.00672492 
0.0458048 
0.0208742 
0.0244177 
0.0227497 
0.0255409 
0.0349698 
0.0451766 
0.059089 
0.0517608 
0.0591067 
0.0503582 
0.00873856 
0.0487576 
0.0219429 
0.0659153 
0.00822514 
0.0376281 
0.0379115 
0.02831 
0.0303717 
0.0272589 
0.00931398 
0.027737 
0.0208562 
0.0241366 
0.0321243 
0.0355907 
0.00652742 
0.027692 
0.0210834 
0.0530213 
0.0401419 
0.0473507 
0.022501 
0.0260879 
0.0353136 
0.00736733 
0.0396552 
0.0486648 
0.0434461 
0.0249783 
0.0129126 
0.0297527 
0.0305499 
0.0237477 
0.015034 
0.0334193 
0.0254488 
0.0278461 
0.0530928 
0.0533456 
0.0332179 
0.0441214 
0.0369103 
0.00969838 
0.0370985 
0.0615326 
0.0276448 
0.010304 
0.0289358 
0.0380968 
0.0184257 
0.0264421 
0.0474959 
0.0181893 
0.0119366 
0.0162355 
0.0422634 
0.0154071 
0.0451135 
0.0274047 
0.0250407 
0.0310511 
0.0321672 
0.00730152 
0.015137 
0.0348034 
0.0325173 
0.0212398 
0.0337168 
0.0179806 
0.0489654 
0.0448433 
0.0278062 
0.0420869 
0.00608377 
0.0417407 
0.0198438 
0.0280531 
0.0175497 
0.0189119 
0.0412952 
0.0425076 
0.0373584 
0.0275515 
0.0422527 
0.0270642 
0.0103654 
0.024518 
0.0203001 
0.0216243 
0.0243328 
0.0385973 
0.0360389 
0.0159051 
0.0335692 
0.0475628 
0.0344164 
0.0217494 
0.0287205 
0.0319015 
0.0353206 
0.0266068 
0.0416586 
0.0473513 
0.0444343 
0.0586814 
0.0473904 
0.0529709 
0.0118609 
0.0170616 
0.0275648 
0.0166233 
0.0206432 
0.0360348 
0.0352855 
0.0489358 
0.0403095 
0.0325499 
0.0408702 
0.0179896 
0.0113451 
0.0209682 
0.0409954 
0.00944914 
0.0236952 
0.0161469 
0.0403932 
0.0208456 
0.0280703 
0.0136446 
0.0471888 
0.0259116 
0.0144071 
0.0425392 
0.0439754 
0.0336751 
0.022881 
0.00876935 
0.032202 
0.0205507 
0.0267048 
0.0329016 
0.0257565 
0.0190639 
0.0236443 
0.0209414 
0.0164933 
0.0211979 
0.016613 
0.0247985 
0.0313536 
0.0245206 
0.0299845 
0.0118797 
0.0552638 
0.0430874 
0.0159828 
0.0310186 
0.0154005 
0.00880019 
0.029614 
0.0164722 
0.017425 
0.0309727 
0.0459203 
0.0188062 
0.0368525 
0.0282652 
0.0339603 
0.0467988 
0.0158154 
0.0356337 
0.00816844 
0.0141532 
0.0312932 
0.0109571 
0.0234249 
0.0362748 
0.0303877 
0.0404304 
0.0361919 
0.015068 
0.0143384 
0.0263059 
0.0206929 
0.0129395 
0.0245967 
0.0113072 
0.012881 
0.0140608 
0.0465197 
0.021745 
0.021144 
0.0099748 
0.0143413 
0.0349812 
0.0173044 
0.0338338 
0.0118448 
0.041299 
0.0441712 
0.0221956 
0.0351065 
0.0183876 
0.0208234 
0.0425159 
0.0382829 
0.021293 
0.0150213 
0.0203226 
0.022385 
0.0175231 
0.0243865 
0.029139 
0.0113207 
0.0380012 
0.0393257 
0.0211629 
0.0253627 
0.0493121 
0.0135494 
0.0293977 
0.0311024 
0.0101794 
0.032655 
0.0176247 
0.0102814 
0.0132762 
0.039727 
0.0209341 
0.008213 
0.016892 
0.0393519 
0.0450438 
0.0419831 
0.043421 
0.0558243 
0.061999 
0.0334218 
0.0173625 
0.028485 
0.0284867 
0.010305 
0.0460533 
0.0240955 
0.0248765 
0.044587 
0.0291071 
0.0267073 
0.00836758 
0.0432244 
0.0360777 
0.0277181 
0.0065401 
0.0242293 
0.0098553 
0.0188126 
0.0188048 
0.0193455 
0.0240624 
0.0358557 
0.0384254 
0.0457836 
0.0421719 
0.0298485 
0.0361107 
0.0386218 
0.0304186 
0.0178107 
0.0289592 
0.0290775 
0.0146941 
0.0322924 
0.019997 
0.00591231 
0.0346859 
0.026266 
0.0426933 
0.0405159 
0.016655 
0.0333437 
0.02705 
0.010396 
0.0280622 
0.0183228 
0.0253126 
0.0232194 
0.0106524 
0.00632103 
0.0257547 
0.00468871 
0.0207832 
0.0175168 
0.0252801 
0.016331 
0.0389838 
0.0356718 
0.0182523 
0.0243063 
0.0329335 
0.0461337 
0.0109911 
0.02561 
0.0477045 
0.0510783 
0.0141679 
0.0423057 
0.057155 
0.0223434 
0.0392189 
0.0538733 
0.0380786 
0.00728744 
0.0257281 
0.023132 
0.0319038 
0.0330689 
0.0285379 
0.0172366 
0.030733 
0.0458503 
0.0315053 
0.0240389 
0.0286178 
0.0203976 
0.0171552 
0.0173345 
0.0302719 
0.0496232 
0.0450245 
0.0427542 
0.0356036 
0.0375649 
0.0343181 
0.0126796 
0.0485127 
0.0100134 
0.0274921 
0.0215999 
0.0513114 
0.0199077 
0.0264129 
0.0128813 
0.00962985 
0.0198201 
0.0083965 
0.0269935 
0.041454 
0.0225604 
0.0368439 
0.0306887 
0.0466813 
0.0172139 
0.0540729 
0.0269954 
0.0218777 
0.0345054 
0.0194071 
0.0169842 
0.0427203 
0.0416713 
0.0168541 
0.0278458 
0.0298248 
0.022377 
0.0317092 
0.0419417 
0.0225045 
0.0501928 
0.0214223 
0.0455087 
0.0239594 
0.0454528 
0.0201337 
0.0423618 
0.0210547 
0.0283412 
0.0174904 
0.0296635 
0.0260106 
0.0235407 
0.0275707 
0.0177703 
0.03803 
0.0343394 
0.0164231 
0.0533229 
0.0344718 
0.0233016 
0.0307335 
0.0254795 
0.0472087 
0.0262014 
0.0300414 
0.00606491 
0.00999492 
0.0250672 
0.0191329 
0.0415316 
0.0259359 
0.0439709 
0.0165963 
0.0520649 
0.0174987 
0.0424546 
0.0542016 
0.012748 
0.0318275 
0.0239168 
0.0397559 
0.02402 
0.0295199 
0.0393116 
0.0351227 
0.0247927 
0.0277479 
0.0270119 
0.0325971 
0.0284844 
0.0277668 
0.00625257 
0.024803 
0.0234635 
0.0359495 
0.0321437 
0.00543379 
0.0184181 
0.0355237 
0.0597231 
0.0621805 
0.0429541 
0.0502176 
0.0130552 
0.0253593 
0.0197491 
0.0340293 
0.0380904 
0.00480582 
0.0117421 
0.0294324 
0.0261836 
0.0421763 
0.0508087 
0.029694 
0.0300682 
0.0174569 
0.0228193 
0.0326446 
0.0270721 
0.0311638 
0.0264291 
0.0174451 
0.034619 
0.0340035 
0.00992419 
0.0364731 
0.0257535 
0.0259871 
0.0259108 
0.0159494 
0.0139971 
0.0234071 
0.0252311 
0.0207137 
0.0311929 
0.0323431 
0.0165103 
0.0323662 
0.0341244 
0.0135226 
0.0290544 
0.0162868 
0.0108432 
0.0176171 
0.0346491 
0.0220712 
0.0421266 
0.0331879 
0.0441767 
0.0269311 
0.0449086 
0.0175673 
0.0308172 
0.00786437 
0.015541 
0.025549 
0.0316898 
0.0346354 
0.0320313 
0.00810795 
0.0300245 
0.0309999 
0.0434105 
0.0203092 
0.00992575 
0.0431981 
0.0214277 
0.0075093 
0.0183215 
0.018762 
0.0119984 
0.0345577 
0.0392923 
0.0109241 
0.0156555 
0.028536 
0.0250134 
0.0114957 
0.0290656 
0.0180938 
0.017471 
0.0066054 
0.0234258 
0.0407764 
0.0121077 
0.0199886 
0.0244326 
0.0481866 
0.0462877 
0.0385406 
0.034822 
0.0431877 
0.0241511 
0.0243277 
0.0302682 
0.0190169 
0.0242866 
0.00702686 
0.032108 
0.0209217 
0.0378405 
0.003541 
0.015016 
0.029425 
0.0192932 
0.0246246 
0.0106271 
0.0263268 
0.037247 
0.025699 
0.00971477 
0.0273631 
0.0060465 
0.0156154 
0.0207833 
0.0637524 
0.025439 
0.0239275 
0.0213811 
0.0188343 
0.0273671 
0.0159792 
0.019951 
0.0177094 
0.0415986 
0.0161422 
0.0198816 
0.0259597 
0.0260455 
0.0367579 
0.014215 
0.0166839 
0.0144308 
0.034921 
0.0239573 
0.0331473 
0.0434414 
0.0209696 
0.031288 
0.0259192 
0.0349152 
0.0180751 
0.0125187 
0.0150472 
0.0213901 
0.0295338 
0.0336386 
0.0279934 
0.0237954 
0.0145257 
0.0134253 
0.0190308 
0.0179755 
0.0160378 
0.0192626 
0.0300305 
0.0380897 
0.0119531 
0.0307469 
0.0364528 
0.0263471 
0.0313526 
0.0157288 
0.0111488 
0.0297331 
0.0354082 
0.0346996 
0.0270112 
0.00970791 
0.0225868 
0.0301979 
0.00472332 
0.0393211 
0.0488741 
0.042842 
0.0539176 
0.0190942 
0.0290401 
0.0459922 
0.0477402 
0.0330029 
0.0199303 
0.0539689 
0.0182874 
0.0171673 
0.0137755 
0.00695975 
0.023317 
0.0136106 
0.0237406 
0.0260714 
0.0194305 
0.0271258 
0.0287344 
0.0262474 
0.0397195 
0.0422506 
0.0393385 
0.0198255 
0.0200025 
0.00936903 
0.025903 
0.0206088 
0.0311754 
0.0374126 
0.0156251 
0.0461766 
0.0400567 
0.0225612 
0.0205624 
0.0631372 
0.0193217 
0.018208 
0.0328842 
0.0105735 
0.0378591 
0.0437583 
0.0340248 
0.0222555 
0.00712958 
0.0549288 
0.0281861 
0.0322514 
0.00858704 
0.0141402 
0.0256649 
0.0169207 
0.0331105 
0.0303014 
0.0158733 
0.0429586 
0.0401608 
0.0114241 
0.0208614 
0.023416 
0.0239212 
0.0460311 
0.030761 
0.0165607 
0.0243055 
0.0118916 
0.030543 
0.00984023 
0.011123 
0.013494 
0.00698035 
0.0172564 
0.0256333 
0.0257048 
0.0387946 
0.00255236 
0.0144679 
0.0262956 
0.0315106 
0.0388797 
0.0150432 
0.0552115 
0.0395156 
0.0117986 
0.051217 
0.0183278 
0.0295328 
0.0134286 
0.032651 
0.010527 
0.0249419 
0.0130052 
0.0211814 
0.00945493 
0.0379387 
0.0255074 
0.0257334 
0.0247046 
0.0210391 
0.0258925 
0.0454779 
0.0301645 
0.0171082 
0.0347982 
0.029441 
0.0252512 
0.054709 
0.0399008 
0.0556177 
0.0251955 
0.015251 
0.0152654 
0.0370433 
0.0426261 
0.0310607 
0.0445346 
0.0227656 
0.0221718 
0.040546 
0.014909 
0.0407309 
0.0200761 
0.0406139 
0.0235368 
0.0385763 
0.0236332 
0.0357081 
0.0254238 
0.0494347 
0.0416223 
0.0557181 
0.0424286 
0.0203667 
0.0147918 
0.0342501 
0.0159478 
0.0462786 
0.0305803 
0.0125991 
0.0367662 
0.023505 
0.0210012 
0.0281426 
0.0354524 
0.0537955 
0.0296413 
0.0116992 
0.0114173 
0.046195 
0.03411 
0.0289016 
0.0161381 
0.0310578 
0.0245345 
0.0289593 
0.0192997 
0.0145197 
0.0366716 
0.0300546 
0.0166814 
0.0347456 
0.0097612 
0.020951 
0.00194657 
0.02093 
0.0484611 
0.0429315 
0.0546352 
0.0254562 
0.0182588 
0.0243284 
0.034891 
0.0138254 
0.0274288 
0.019706 
0.0291361 
0.0179201 
0.0176386 
0.0483651 
0.0204435 
0.0192292 
0.0281136 
0.0207345 
0.0290034 
0.0260623 
0.0276297 
0.0172448 
0.024209 
0.0125645 
0.0163783 
0.0151613 
0.0259267 
0.0393419 
0.0219311 
0.0261171 
0.0454672 
0.0285575 
0.0314297 
0.0347306 
0.0150245 
0.0311046 
0.0233821 
0.0628047 
0.0278152 
0.0235213 
0.0150281 
0.0343221 
0.0316393 
0.0284305 
0.0255179 
0.0198714 
0.0227541 
0.0266289 
0.018559 
0.0322408 
0.0135213 
0.0199877 
0.0280836 
0.0182587 
0.0367652 
0.0319829 
0.033074 
0.0513943 
0.0264499 
0.0285307 
0.0378208 
0.0191125 
0.0262189 
0.0466557 
0.0387453 
0.0250147 
0.0289366 
0.0468785 
0.0247824 
0.0229978 
0.0358706 
0.0257388 
0.0358274 
0.0596218 
0.0450399 
0.0217882 
0.0373988 
0.0142148 
0.0243789 
0.0432159 
0.0219906 
0.0254353 
0.00487918 
0.0409687 
0.0208054 
0.01641 
0.034266 
0.0269712 
0.0274939 
0.0349981 
0.0149125 
0.0128875 
0.0181082 
0.0414866 
0.0187882 
0.0606606 
0.0459049 
0.0268037 
0.0194713 
0.024475 
0.02078 
0.0222174 
0.0200834 
0.0268244 
0.0328459 
0.0133108 
0.0374397 
0.0233355 
0.0198316 
0.0314978 
0.0132581 
0.0372674 
0.037888 
0.0298109 
0.0233017 
0.0413378 
0.0254849 
0.0237288 
0.0282525 
0.0334648 
0.0253623 
0.0372935 
0.0491501 
0.0352906 
0.0101952 
0.0364079 
0.0200855 
0.0432279 
0.0464538 
0.0482113 
0.0250658 
0.040072 
0.0205739 
0.0325591 
0.0238946 
0.0224958 
0.0237866 
0.056715 
0.0420096 
0.0328587 
0.025533 
0.0305665 
0.019295 
0.013109 
0.0203506 
0.0252078 
0.00541407 
0.0309079 
0.0178825 
0.0445796 
0.00346071 
0.0354777 
0.0173704 
0.0154252 
0.0148592 
0.0350622 
0.00406434 
0.0405816 
0.0215202 
0.0515808 
0.0349942 
0.0286794 
0.0147802 
0.0265552 
0.0440326 
0.018882 
0.0103583 
0.024548 
0.035771 
0.0459655 
0.03427 
0.0409754 
0.0120393 
0.0164141 
0.0187389 
0.050824 
0.0221865 
0.0223155 
0.0164405 
0.0422472 
0.0240427 
0.0310551 
0.0385585 
0.0246274 
0.0373456 
0.0366916 
0.0284858 
0.0419964 
0.0308673 
0.0155187 
0.0206143 
0.032509 
0.0578233 
0.0431538 
0.0156556 
0.0154747 
0.020221 
0.0245669 
0.0167725 
0.0335459 
0.0263679 
0.0201525 
0.0143905 
0.0516675 
0.0143556 
0.0143939 
0.0354344 
0.0416914 
0.0101263 
0.033888 
0.0373858 
0.0328237 
0.0166665 
0.0291371 
0.0251957 
0.0145418 
0.036514 
0.0290041 
0.0220684 
0.0486344 
0.0269496 
0.0238708 
0.0358625 
0.0238005 
0.0164539 
0.03481 
0.0190575 
0.0184843 
0.0416434 
0.0371459 
0.0630329 
0.0240495 
0.0511705 
0.00845659 
0.0220527 
0.0238697 
0.00699923 
0.0204852 
0.0299344 
0.0283451 
0.0292412 
0.0197062 
0.0425461 
0.0573215 
0.037067 
0.0402217 
0.0142709 
0.0169039 
0.0147957 
0.0286983 
0.0190847 
0.0229074 
0.00831504 
0.0137089 
0.0178472 
0.0213629 
0.0447307 
0.0486114 
0.0230272 
0.0147768 
0.0369563 
0.0180563 
0.0374183 
0.0391566 
0.0179173 
0.0230175 
0.0297327 
0.0143614 
0.025295 
0.0462134 
0.0129801 
0.018529 
0.0151094 
0.0251245 
0.0173871 
0.0373294 
0.0311301 
0.0127574 
0.0450492 
0.0297402 
0.0180037 
0.0162193 
0.0277761 
0.0263266 
0.0238224 
0.0212193 
0.0251285 
0.00694936 
0.028468 
0.0310564 
0.0130464 
0.0231739 
0.0276241 
0.0130608 
0.0109259 
0.0183458 
0.0182765 
0.040017 
0.0407678 
0.0307909 
0.0116984 
0.0259174 
0.0352539 
0.0389587 
0.0174262 
0.00390469 
0.0301763 
0.0353916 
0.028827 
0.0529878 
0.0121869 
0.01219 
0.0393385 
0.0325005 
0.0402698 
0.0218101 
0.00991064 
0.0188259 
0.0244213 
0.0187329 
0.0246848 
0.0273998 
0.0361176 
0.0325992 
0.0184685 
0.0282687 
0.0393414 
0.00827347 
0.0228598 
0.0310655 
0.0175522 
0.0533221 
0.0173369 
0.0183707 
0.0328202 
0.00713311 
0.0245623 
0.0188303 
0.0293315 
0.0244172 
0.012977 
0.0393382 
0.0249423 
0.0543579 
0.013667 
0.0248639 
0.0345437 
0.0161578 
0.0249752 
0.0256521 
0.0374134 
0.0121503 
0.0103718 
0.0471823 
0.0254856 
0.0487413 
0.0264079 
0.0289005 
0.0208306 
0.0337996 
0.0252791 
0.0430925 
0.0402433 
0.0344594 
0.0124422 
0.0512291 
0.0271669 
0.00940598 
0.0163694 
0.0253154 
0.0397566 
0.0136575 
0.0227612 
0.0343388 
0.0344088 
0.0154542 
0.0217031 
0.0319577 
0.0322609 
0.0302538 
0.0070942 
0.0253697 
0.0271903 
0.0181781 
0.0348371 
0.0265103 
0.052758 
0.0264371 
0.0372006 
0.0277929 
0.0348747 
0.0421666 
0.0204907 
0.0236715 
0.0257778 
0.0369848 
0.0283825 
0.00805483 
0.0398342 
0.0154844 
0.0212519 
0.0397204 
0.016199 
0.00437359 
0.0217529 
0.040328 
0.0386187 
0.0338667 
0.0234175 
0.0208717 
0.033649 
0.0196728 
0.015977 
0.0337713 
0.0333998 
0.0221931 
0.0267877 
0.0453738 
0.0428109 
0.0270019 
0.0517236 
0.0445701 
0.0260589 
0.0541181 
0.0546518 
0.00882605 
0.0295382 
0.0385779 
0.0304734 
0.0218596 
0.0252128 
0.0241007 
0.0116825 
0.0264083 
0.037333 
0.0604159 
0.0605625 
0.0135145 
0.0186656 
0.0229217 
0.0250456 
0.0118143 
0.035916 
0.0233763 
0.0310952 
0.0106873 
0.0227481 
0.022103 
0.0127993 
0.0197532 
0.0223383 
0.0146463 
0.0276032 
0.019666 
0.0209312 
0.0170412 
0.0307847 
0.0467867 
0.0323529 
0.0120572 
0.0371237 
0.0261886 
0.0140118 
0.031665 
0.0377305 
0.01889 
0.0323637 
0.0213444 
0.029135 
0.0249307 
0.0418716 
0.0278027 
0.0166983 
0.0409981 
0.0322817 
0.0391521 
0.0287671 
0.0274646 
0.03394 
0.00758469 
0.0345906 
0.0537003 
0.0234566 
0.0354647 
0.0271501 
0.0239899 
0.0289379 
0.0334415 
0.0186448 
0.0126004 
0.0135639 
0.00701437 
0.0184992 
0.00870129 
0.00135468 
0.0360772 
0.0116039 
0.0173231 
0.0188662 
0.0351168 
0.0259413 
0.0163542 
0.0207004 
0.0412307 
0.0163396 
0.0246249 
0.0322293 
0.0372956 
0.0202182 
0.0301234 
0.0164009 
0.0219602 
0.017474 
0.0100706 
0.0257232 
0.0424883 
0.0141948 
0.032921 
0.0320031 
0.0437873 
0.01529 
0.0468769 
0.0441218 
0.0365799 
0.0304069 
0.0164966 
0.0412672 
0.0411089 
0.0319378 
0.0314464 
0.00426008 
0.0325614 
0.00740253 
0.0211189 
0.0357264 
0.0186118 
0.0213927 
0.0380379 
0.021366 
0.0259983 
0.00889917 
0.0310135 
0.0294035 
0.0214728 
0.036343 
0.0449753 
0.0298421 
0.0425223 
0.0265783 
0.00934828 
0.0218886 
0.0266572 
0.0493524 
0.0317915 
0.0330825 
0.020047 
0.0450969 
0.0236924 
0.0211867 
0.049229 
0.0181613 
0.028974 
0.0158479 
0.0388045 
0.0436935 
0.0402247 
0.0246261 
0.0148602 
0.0105747 
0.0204015 
0.0280533 
0.0217878 
0.0269203 
0.0249863 
0.0453407 
0.00333215 
0.0242831 
0.0319532 
0.0294391 
0.010602 
0.0459633 
0.0218406 
0.0494975 
0.0419873 
0.0153207 
0.0464856 
0.0289697 
0.0345678 
0.012752 
0.0408578 
0.0223113 
0.0398038 
0.0134179 
0.0391003 
0.01589 
0.0328765 
0.0329401 
0.0367987 
0.0288046 
0.0164252 
0.0182586 
0.0358599 
0.0508858 
0.0382352 
0.0383974 
0.0110089 
0.0190095 
0.0417216 
0.0344404 
0.0288828 
0.0216549 
0.0269553 
0.0315616 
0.0191828 
0.0416378 
0.0381011 
0.00984277 
0.0245471 
0.00650128 
0.0184932 
0.0181058 
0.0161721 
0.0208572 
0.0157318 
0.021405 
0.0165944 
0.0226986 
0.0341388 
0.00922457 
0.0177618 
0.0133966 
0.0415168 
0.0142547 
0.0314501 
0.0139611 
0.031255 
0.0173526 
0.00868178 
0.0215173 
0.0266168 
0.00667882 
0.00479993 
0.0489612 
0.0199104 
0.0226148 
0.0289675 
0.0113725 
0.0273583 
0.0231931 
0.0214861 
0.014921 
0.025738 
0.0180113 
0.018873 
0.0231134 
0.0407829 
0.0254059 
0.0225494 
0.0356182 
0.0082347 
0.0200139 
0.0391745 
0.0187922 
0.0145566 
0.0398646 
0.022162 
0.00547506 
0.0275797 
0.0259359 
0.0276985 
0.0348211 
0.0265266 
0.0149078 
0.0257612 
0.0263376 
0.00840249 
0.0330506 
0.0193294 
0.0294351 
0.0124005 
0.0186737 
0.0258323 
0.0349325 
0.0390607 
0.0401771 
0.00305989 
0.02059 
0.0487545 
0.0313818 
0.0269772 
0.0271298 
0.0409852 
0.0302513 
0.0175004 
0.0360783 
0.0219873 
0.0190756 
0.0451616 
0.0299989 
0.0473838 
0.0154805 
0.01513 
0.0329618 
0.0305148 
0.0158427 
0.0327146 
0.0179071 
0.0345285 
0.0179969 
0.0328586 
0.0254615 
0.0232645 
0.0359543 
0.0447994 
0.0240003 
0.0205242 
0.0437599 
0.0215852 
0.0103309 
0.0286224 
0.0167108 
0.014899 
0.048825 
0.00691469 
0.0354786 
0.0259194 
0.0372404 
0.0287203 
0.0198203 
0.0168253 
0.0292252 
0.0262756 
0.0250505 
0.0232812 
0.0224687 
0.019107 
0.0237698 
0.0330223 
0.0229698 
0.025287 
0.0287336 
0.0464509 
0.0242573 
0.027533 
0.0278902 
0.0194897 
0.0207238 
0.0239451 
0.0161152 
0.0229934 
0.0344444 
0.0456276 
0.0245666 
0.0237547 
0.0277395 
0.0215959 
0.0239599 
0.0260631 
0.0365039 
0.0163935 
0.0134759 
0.0367647 
0.0138391 
0.0109675 
0.0260612 
0.0269292 
0.0144297 
0.0292135 
0.0474404 
0.011882 
0.0258324 
0.0498526 
0.0408797 
0.0396723 
0.0158933 
0.0231375 
0.032721 
0.016764 
0.0206115 
0.0327015 
0.0257657 
0.0124676 
0.027928 
0.0196834 
0.0539627 
0.0449474 
0.0281177 
0.00496251 
0.0217018 
0.027935 
0.0131753 
0.0168733 
0.0484781 
0.0194223 
0.00763422 
0.0196645 
0.0344536 
0.0199918 
0.0111371 
0.022118 
0.0400534 
0.0425801 
0.0258451 
0.0170793 
0.0120073 
0.0125217 
0.0304088 
0.0343434 
0.0427767 
0.0174788 
0.0240499 
0.022466 
0.0386447 
0.0484423 
0.0484895 
0.0254751 
0.0219048 
0.0122353 
0.0200309 
0.0214028 
0.0313083 
0.0275695 
0.0168126 
0.0354009 
0.0166686 
0.0170002 
0.0210592 
0.0404542 
0.0237291 
0.027381 
0.0168916 
0.0333631 
0.0267852 
0.030969 
0.0206585 
0.0162582 
0.0204454 
0.0140441 
0.0178015 
0.0193479 
0.0252952 
0.0197147 
0.00592367 
0.0175931 
0.00549128 
0.0173819 
0.0227808 
0.0309257 
0.0235969 
0.027283 
0.0273592 
0.0322495 
0.0288202 
0.0404889 
0.0462397 
0.0361262 
0.0255793 
0.0206788 
0.0183825 
0.0113742 
0.0208006 
0.0202699 
0.0243999 
0.0191448 
0.025248 
0.0304519 
0.0264627 
0.0335871 
0.0129581 
0.0471515 
0.0546593 
0.0124839 
0.0183945 
0.0133381 
0.0221194 
0.0112639 
0.0233433 
0.0308649 
0.0355024 
0.0114664 
0.0369846 
0.0147441 
0.0634739 
0.0462803 
0.0117717 
0.0268373 
0.0317043 
0.0408011 
0.0139878 
0.0295052 
0.0498567 
0.0192694 
0.0305991 
0.015744 
0.0159382 
0.00643317 
0.0179157 
0.0365732 
0.0369575 
0.0460936 
0.0503987 
0.0127195 
0.0304753 
0.0362878 
0.0370567 
0.0411055 
0.04271 
0.0274915 
0.0306787 
0.059407 
0.0283893 
0.0171203 
0.0176857 
0.03514 
0.0300892 
0.0219355 
0.0281981 
0.0280572 
0.0373458 
0.0274512 
0.0342477 
0.0497961 
0.0321228 
0.0380652 
0.0438088 
0.0319281 
0.0234382 
0.0262237 
0.0330607 
0.0239563 
0.0142965 
0.0399144 
0.0278279 
0.0263232 
0.0283401 
0.0245242 
0.0208852 
0.0243758 
0.00968953 
0.0327084 
0.012023 
0.0431038 
0.0160454 
0.0228287 
0.00561491 
0.036364 
0.0473031 
0.0180872 
0.0307462 
0.0192957 
0.0206533 
0.0185474 
0.0301629 
0.0139828 
0.0366721 
0.0300735 
0.0225074 
0.0161745 
0.0253557 
0.0125998 
0.0151486 
0.0309067 
0.0543843 
0.0459605 
0.0288723 
0.0364591 
0.0393384 
0.0160762 
0.0217556 
0.0335859 
0.0190836 
0.0130218 
0.0314056 
0.016919 
0.0419067 
0.0210228 
0.0251472 
0.0206504 
0.0160306 
0.0163956 
0.0379566 
0.023098 
0.0241218 
0.0230438 
0.0244172 
0.0344366 
0.0289546 
0.0530049 
0.0223045 
0.0213332 
0.0312457 
0.0267157 
0.0171843 
0.0249457 
0.0231887 
0.0272835 
0.0275555 
0.0210909 
0.0314346 
0.0163047 
0.0113618 
0.0195559 
0.0106349 
0.0209381 
0.0147262 
0.014975 
0.0280571 
0.0358407 
0.0118575 
0.0101597 
0.0335982 
0.0544793 
0.0320684 
0.0337111 
0.0425839 
0.0195687 
0.0241489 
0.0268479 
0.0118819 
0.0252243 
0.0357827 
0.0345226 
0.0105666 
0.0234187 
0.036701 
0.020032 
0.0443754 
0.0226334 
0.0395594 
0.0315855 
0.0139306 
0.0229299 
0.0245386 
0.0411776 
0.0265075 
0.00575551 
0.0167645 
0.0504929 
0.0319506 
0.0352388 
0.0138569 
0.0272294 
0.0215228 
0.0449161 
0.0245033 
0.0244342 
0.0400535 
0.0245065 
0.0262143 
0.0352039 
0.0278132 
0.0330782 
0.0356499 
0.0284713 
0.0141743 
0.0163367 
0.0289313 
0.0288139 
0.0307293 
0.00789856 
0.0248948 
0.0358653 
0.0164141 
0.0378563 
0.0370469 
0.0427183 
0.0337975 
0.0422133 
0.0279716 
0.0405649 
0.0338922 
0.0192209 
0.0345579 
0.0258078 
0.038497 
0.0194337 
0.0213189 
0.0307977 
0.0276818 
0.0408568 
0.0207329 
0.0286872 
0.0207086 
0.0319635 
0.0257333 
0.0246047 
0.0135511 
0.0323655 
0.0305811 
0.0118114 
0.0471543 
0.0328472 
0.0126436 
0.0186257 
0.0305562 
0.0157706 
0.0393868 
0.0524497 
0.0202509 
0.0399109 
0.0454094 
0.0299519 
0.0564177 
0.024894 
0.0343805 
0.0309746 
0.0439704 
0.0438673 
0.0226151 
0.0420211 
0.0304891 
0.0445449 
0.012701 
0.0442798 
0.0339192 
0.0146862 
0.00881313 
0.0242677 
0.0242175 
0.0122761 
0.0246825 
0.0325775 
0.0357428 
0.0360819 
0.0265422 
0.0186769 
0.0365568 
0.00505747 
0.0175413 
0.0313947 
0.042811 
0.0261916 
0.0382466 
0.0219207 
0.0364908 
0.0366858 
0.0411215 
0.00868127 
0.0257246 
0.0285862 
0.0186892 
0.0452411 
0.022735 
0.0334418 
0.0199987 
0.0451295 
0.0145151 
0.0253192 
0.034407 
0.0212657 
0.0375197 
0.0132675 
0.0210326 
0.0195274 
0.0224536 
0.024762 
0.0297298 
0.0231422 
0.0329635 
