# SiO2 alpha quartz 

     2  atoms
     2  atom types

0 25 xlo xhi
0 25 ylo yhi
0 25 zlo zhi

Masses

	1 28.0855
	2 15.9994

Atoms

       1        1          10 10 10  
       2        2          12.5 10 10 

