ITEM: TIMESTEP
50
ITEM: NUMBER OF ENTRIES
115155
ITEM: BOX BOUNDS pp pp pp
0 108.62
0 108.62
0 54.31
ITEM: ENTRIES c_pairDist 
2.37824 
2.25299 
3.75374 
2.22986 
2.41845 
2.37573 
2.30872 
2.31333 
3.7282 
3.56772 
3.75515 
2.21815 
2.33616 
2.34216 
2.27932 
3.64356 
3.72762 
3.76368 
2.32004 
3.33922 
2.41841 
3.70699 
2.26757 
3.7263 
2.31335 
3.73613 
2.27882 
3.76909 
2.36269 
3.75527 
2.3968 
3.64357 
2.41691 
3.72599 
2.27536 
2.37434 
2.42405 
3.66548 
2.38277 
2.47127 
2.32959 
2.33827 
3.73086 
3.72881 
2.43459 
2.29384 
2.40048 
2.44609 
2.34454 
3.66605 
2.39752 
2.25274 
2.37651 
2.24126 
3.66872 
3.74231 
2.33002 
3.76926 
3.74189 
3.75851 
2.33971 
3.7313 
2.33234 
3.72695 
2.1902 
2.3377 
3.63614 
3.736 
3.76873 
2.26892 
3.75067 
2.31939 
2.36702 
3.6178 
2.34908 
2.17317 
3.76721 
3.73531 
3.70471 
3.65803 
2.47287 
3.7399 
2.39114 
2.33186 
2.2851 
3.71 
3.76866 
2.33766 
2.34525 
2.46971 
2.24513 
2.33056 
3.74734 
3.64566 
3.71194 
2.3641 
3.60801 
2.34474 
3.70847 
2.2591 
2.45522 
2.3316 
3.73978 
2.41231 
3.70339 
2.39392 
2.36859 
3.75955 
3.75767 
2.41621 
2.35332 
2.41042 
3.66905 
2.2903 
3.67383 
2.27449 
3.72125 
3.76292 
2.3925 
2.3586 
2.39011 
3.71841 
2.30724 
2.42806 
2.30775 
3.59962 
2.40061 
3.66809 
2.34971 
2.41142 
2.40785 
2.36551 
3.75924 
3.72134 
2.32846 
3.71449 
3.66191 
2.3363 
3.67517 
2.42141 
2.43191 
3.75254 
3.73026 
2.40554 
2.42165 
2.47962 
2.32974 
3.63659 
3.65296 
3.75458 
3.60182 
2.29271 
3.5522 
2.30307 
3.71547 
2.29882 
2.37182 
3.57188 
2.27894 
2.3989 
3.6111 
2.29759 
3.74936 
2.60155 
2.2599 
3.67773 
3.74251 
2.37674 
2.33503 
2.37419 
2.36315 
3.72858 
3.60702 
2.44277 
3.76409 
2.30737 
2.31785 
3.70921 
3.7397 
3.6022 
2.22505 
2.25419 
3.72047 
2.4644 
2.34248 
3.69125 
2.25952 
2.3338 
2.48867 
3.51403 
2.46525 
3.65236 
3.68248 
3.7516 
2.45584 
2.22847 
2.34794 
2.32927 
2.33834 
2.37032 
2.44051 
3.76453 
3.6996 
2.2815 
2.27666 
3.6131 
3.5117 
2.27794 
2.32371 
2.32504 
2.29121 
2.40101 
2.53418 
3.75764 
2.50197 
3.70898 
3.76357 
2.31126 
2.35112 
2.3981 
2.39242 
3.69711 
2.39277 
2.30892 
3.65351 
3.76362 
2.24551 
2.34809 
2.44353 
3.75424 
2.58067 
2.36127 
3.69125 
2.35404 
3.66026 
2.25847 
3.65612 
2.3985 
3.7353 
3.53807 
2.31956 
3.73506 
3.63764 
2.34092 
2.26238 
3.75304 
2.41905 
3.70697 
3.75652 
3.71405 
3.72443 
2.37285 
3.58642 
2.31926 
3.71404 
2.37303 
2.39401 
3.62115 
2.36184 
2.43366 
3.69625 
3.75663 
2.40966 
2.3642 
2.47297 
2.33965 
2.25959 
2.39072 
3.7418 
3.71103 
2.37128 
2.32147 
2.46501 
2.39382 
2.31737 
3.7589 
2.21417 
2.25424 
3.64811 
2.24729 
3.57359 
3.60381 
3.77014 
3.7618 
3.75649 
2.37356 
2.31764 
2.35429 
3.65415 
3.73567 
2.34002 
2.47402 
2.23431 
3.7202 
2.4458 
2.3872 
3.59954 
3.76501 
2.41403 
2.3607 
3.66375 
2.24773 
2.40178 
2.31085 
3.73565 
2.36987 
3.67747 
2.23355 
2.34063 
3.66744 
3.68333 
2.25695 
2.26503 
2.3658 
2.47871 
3.62189 
3.72678 
2.36003 
3.64501 
3.69157 
2.35658 
2.51887 
3.70153 
2.46441 
2.36546 
3.68839 
2.31093 
2.31774 
3.76243 
3.75951 
2.35148 
2.34055 
3.68774 
2.39821 
2.33132 
3.75785 
2.34312 
2.26803 
2.30386 
3.75137 
2.37661 
2.46365 
2.40874 
3.72249 
3.64384 
3.6114 
2.34073 
3.71548 
2.27261 
3.65401 
2.33252 
3.67009 
2.4676 
3.76876 
3.7571 
3.64237 
3.71818 
2.30372 
2.30671 
3.75208 
2.24665 
3.66672 
3.75599 
3.6492 
2.25636 
2.34338 
2.22866 
3.72456 
2.44126 
3.73223 
2.49814 
3.74641 
2.39071 
3.64462 
2.31892 
3.70936 
3.74741 
2.25576 
2.26056 
2.4024 
2.38359 
3.5906 
2.42498 
2.27006 
2.30929 
3.68402 
3.72033 
2.45071 
2.24559 
3.74226 
2.44002 
2.30802 
3.53507 
3.70901 
3.75363 
3.7437 
2.27023 
3.76115 
2.35646 
2.31285 
3.69362 
3.76469 
3.73109 
2.4099 
2.27767 
2.41068 
2.31304 
2.46453 
2.37244 
2.35845 
2.37949 
3.74761 
3.71194 
2.36752 
3.59262 
2.3204 
2.38715 
2.37205 
3.76443 
3.7089 
2.31517 
3.62038 
2.30146 
2.37024 
3.72591 
3.75953 
3.65238 
2.23985 
2.44257 
2.36128 
2.2898 
3.76278 
3.71641 
2.23837 
3.71776 
2.41542 
3.75412 
2.31548 
3.7349 
3.76979 
2.30317 
2.29289 
2.2695 
3.74226 
2.33205 
3.68725 
2.4406 
3.69914 
3.65068 
2.3894 
2.31161 
2.31757 
3.73512 
3.60192 
2.25357 
3.71542 
2.53144 
2.31015 
2.2525 
3.58033 
3.71888 
2.38893 
2.33155 
3.65763 
3.60934 
2.28399 
2.4305 
3.73304 
2.30855 
2.40725 
3.76666 
2.29556 
2.42917 
3.69819 
2.40087 
3.68224 
3.73162 
2.28816 
3.59905 
2.44025 
2.29877 
3.73328 
2.30769 
2.34678 
2.36306 
2.53775 
2.35292 
2.30937 
3.6846 
2.42034 
3.54482 
3.65767 
3.72711 
2.42298 
3.73337 
3.68723 
2.32096 
3.60856 
2.25157 
3.73308 
2.3795 
3.7114 
3.62417 
3.71204 
3.73894 
2.25019 
2.27389 
3.66038 
2.38402 
2.19164 
3.62418 
2.33158 
2.4644 
3.72586 
2.25516 
2.2203 
3.65335 
2.42567 
2.28136 
3.72732 
3.56843 
3.62992 
2.38579 
3.68976 
2.28395 
2.30746 
2.398 
3.6439 
2.32882 
2.51501 
3.76166 
2.36398 
2.37823 
2.4144 
3.7219 
3.62942 
3.69517 
3.75044 
2.33479 
3.69713 
2.35257 
2.23229 
3.51363 
3.7314 
2.52731 
3.68115 
2.34091 
2.37345 
2.30089 
2.32 
2.46688 
3.65862 
2.40604 
3.75172 
2.28198 
3.6425 
2.36409 
2.36978 
3.67295 
2.35602 
3.75416 
3.75189 
2.40558 
2.46116 
2.50409 
3.57653 
3.72359 
3.74854 
2.22913 
3.74834 
3.69362 
2.34715 
3.76555 
2.26983 
3.74226 
2.41492 
3.69801 
3.64379 
2.25833 
3.67427 
2.32938 
3.74492 
2.40447 
3.69839 
3.74059 
2.2417 
3.72169 
2.36533 
3.67799 
2.40879 
2.37751 
3.58594 
3.7478 
3.75782 
2.47288 
3.71178 
2.2244 
2.4232 
2.26456 
3.67769 
3.68509 
3.53688 
3.72316 
3.70346 
2.30809 
2.35751 
2.40691 
3.64649 
2.36023 
3.73314 
3.56172 
3.7029 
2.34606 
2.34397 
2.36975 
2.41638 
3.76384 
2.39201 
2.31044 
3.6956 
3.71841 
3.69761 
3.68546 
2.34556 
2.33754 
2.33252 
2.34363 
3.71452 
3.74531 
3.68318 
2.3926 
3.7299 
2.25913 
2.36212 
3.75239 
3.64114 
2.20342 
2.28593 
2.37794 
2.33943 
3.68786 
2.33276 
2.49847 
2.40973 
3.61025 
2.33401 
3.69595 
2.31217 
3.66085 
2.39815 
3.60249 
3.70249 
3.68469 
2.33477 
2.2116 
2.33505 
2.44828 
3.74826 
2.38516 
2.33658 
2.22642 
3.71251 
3.74517 
3.77053 
2.27041 
3.67117 
2.46647 
3.72844 
2.38947 
2.44052 
2.43763 
2.30737 
3.60302 
2.35189 
3.68706 
2.46722 
2.34619 
3.63711 
3.45066 
2.32247 
3.75644 
2.31432 
3.66983 
2.34532 
3.76733 
3.73047 
3.67388 
2.30819 
2.29433 
2.46851 
3.6244 
2.33554 
2.38147 
2.34258 
3.73007 
3.74021 
2.23484 
2.5093 
2.3614 
3.64954 
2.34195 
2.4385 
2.38358 
2.30996 
3.73494 
3.76483 
3.42725 
2.35414 
2.39869 
2.25803 
2.32594 
2.26099 
3.56089 
3.61492 
2.45481 
3.66485 
2.31038 
2.34982 
2.41328 
2.35427 
3.71365 
2.35768 
3.7421 
3.67371 
2.23895 
2.35488 
3.72852 
2.40873 
2.42119 
3.75326 
2.29276 
3.75653 
3.72613 
3.6685 
2.29063 
3.73322 
3.62024 
2.37408 
2.43143 
2.3014 
2.41672 
3.71912 
2.36372 
3.6227 
2.2881 
3.63485 
3.72114 
2.31276 
3.75454 
3.60339 
3.70223 
3.73704 
2.43742 
2.27515 
2.31538 
2.34153 
2.40966 
3.74395 
3.70541 
3.60944 
2.34657 
2.40156 
3.62756 
2.31081 
2.40417 
3.70233 
3.7058 
2.38178 
2.32521 
2.49578 
2.2261 
3.71051 
3.65704 
2.42444 
3.64589 
3.75598 
3.74634 
3.65535 
3.67193 
2.35356 
2.37032 
3.67687 
2.30332 
2.4287 
2.40186 
3.73891 
2.25339 
2.3452 
3.7621 
2.41398 
3.73003 
3.68835 
2.51461 
3.67131 
2.32714 
3.66756 
2.39492 
2.25813 
3.68515 
3.76791 
3.7425 
3.71026 
2.33718 
2.46907 
2.39777 
2.30675 
3.76139 
3.73368 
2.32784 
2.45869 
3.58751 
3.72303 
2.31799 
2.33382 
3.69673 
2.43248 
2.50087 
3.55854 
3.7328 
2.30652 
2.26445 
3.74227 
3.69376 
2.34811 
3.70998 
2.29185 
2.32662 
2.44868 
3.72508 
2.41115 
2.41245 
2.39449 
3.69999 
3.73826 
2.25832 
3.61868 
3.67183 
3.74106 
3.72138 
2.30008 
2.23862 
2.31477 
2.41314 
3.74542 
2.43569 
2.4149 
3.69799 
2.36724 
2.29954 
2.42109 
2.38028 
3.6975 
3.73395 
2.32543 
3.73105 
2.31999 
3.62 
2.30503 
3.74661 
2.43164 
2.21309 
3.75434 
3.71369 
2.3198 
3.72119 
3.71939 
2.44368 
2.31559 
3.74428 
3.73608 
3.65902 
2.49406 
2.31963 
3.70049 
2.41503 
2.30949 
3.7677 
2.33149 
3.68963 
2.34453 
3.65611 
3.67165 
2.26066 
2.36727 
3.7429 
2.34126 
2.44354 
3.74036 
3.64408 
3.76363 
2.27084 
3.62004 
2.41574 
2.26545 
2.33608 
3.70245 
3.75818 
3.67589 
2.43323 
2.51659 
2.32626 
2.36621 
3.63534 
3.73107 
2.33407 
2.3554 
3.7198 
2.32943 
2.48137 
2.38858 
3.71846 
2.34255 
3.71039 
3.49636 
3.64403 
2.38934 
2.37542 
2.43167 
2.41131 
2.31637 
3.64852 
2.27009 
2.43757 
2.36231 
3.61494 
3.68873 
2.34813 
3.72747 
2.23667 
3.75684 
3.64203 
3.69117 
2.32808 
2.26089 
3.71545 
3.74118 
3.6847 
2.36094 
3.72251 
2.49679 
2.23097 
2.3438 
3.73658 
3.66348 
2.35545 
3.75568 
2.50963 
3.70779 
2.28996 
2.32669 
3.67374 
2.38101 
3.70563 
2.36081 
3.65602 
3.64053 
2.36377 
2.31129 
3.76508 
2.28915 
2.4467 
2.32793 
3.73387 
2.25494 
3.65431 
3.73817 
2.4114 
2.22127 
2.27064 
2.24573 
3.6785 
2.30856 
2.23298 
3.66873 
2.39615 
3.75656 
2.22014 
3.6921 
3.72827 
3.7095 
2.39323 
3.69221 
2.3832 
3.68134 
2.47773 
2.47361 
3.6955 
2.2557 
2.47659 
3.73577 
2.40271 
2.50783 
2.34973 
2.29869 
3.61493 
3.76902 
2.28887 
3.73773 
2.41511 
3.61033 
2.30982 
3.74362 
3.70252 
2.41394 
3.72966 
3.75353 
2.29619 
2.3323 
3.67893 
2.50606 
2.36973 
3.74458 
2.25171 
2.40203 
3.75635 
2.35358 
2.44138 
3.69677 
3.67656 
3.76565 
3.61228 
2.44365 
2.33492 
3.76601 
2.30836 
2.38679 
3.61308 
2.40079 
3.66312 
2.3616 
3.63687 
2.32771 
2.38033 
2.34802 
2.40993 
3.57093 
2.3069 
3.71829 
2.31325 
3.74053 
3.59786 
2.38552 
3.75209 
2.2395 
3.72455 
3.77086 
2.38925 
2.38793 
2.46503 
2.419 
3.73 
2.34748 
2.48713 
2.3677 
2.3783 
3.59867 
3.76127 
3.6602 
3.75594 
2.35498 
2.36926 
3.62715 
3.71589 
3.55908 
2.27506 
2.298 
3.69834 
2.40668 
2.43852 
3.67909 
2.3345 
3.53491 
2.27116 
3.75893 
3.70815 
2.27341 
2.37737 
2.31586 
2.36147 
3.67717 
2.35665 
2.32792 
2.31746 
3.71795 
3.55801 
2.39189 
2.35093 
2.321 
3.59702 
2.47526 
2.33601 
3.74271 
3.76585 
2.35774 
3.71794 
2.30488 
3.76641 
3.74839 
2.3214 
2.31916 
2.39985 
3.61202 
2.46868 
3.76739 
2.42569 
2.40961 
3.72746 
3.72052 
3.74317 
2.16272 
2.31898 
2.35043 
3.7046 
2.50228 
3.52726 
2.34928 
2.38933 
3.7081 
3.75376 
2.44043 
2.36008 
3.73377 
2.36474 
2.29083 
3.71708 
2.34816 
3.64449 
2.26522 
2.39683 
3.69315 
3.65672 
2.35133 
3.54646 
3.72499 
2.309 
2.36387 
3.71029 
3.68447 
3.73857 
3.76027 
2.36859 
2.39218 
3.73198 
2.32837 
2.41102 
3.76157 
3.72543 
2.36055 
2.39012 
2.30375 
2.31125 
3.74442 
3.73362 
2.39675 
2.21389 
3.73509 
2.39705 
2.4773 
3.74606 
3.75726 
3.66868 
2.40749 
2.37948 
3.53946 
3.6561 
3.6439 
2.49335 
2.22996 
3.63099 
2.28362 
2.3659 
2.2588 
2.55416 
2.40613 
2.41475 
2.37005 
2.35528 
3.67814 
3.74219 
2.39738 
2.37954 
2.33584 
2.28762 
2.49755 
2.39854 
3.7615 
2.2734 
2.35651 
3.63679 
2.4428 
2.31987 
2.3713 
2.33855 
3.72318 
3.73985 
3.76447 
2.32512 
2.36694 
3.66874 
2.25583 
2.29108 
3.71837 
3.74551 
3.68667 
2.3298 
3.70366 
2.30639 
3.68977 
3.66849 
3.72383 
2.35487 
3.74323 
2.37065 
2.53141 
2.38081 
3.75958 
3.63739 
2.33867 
3.57837 
2.37648 
3.6161 
2.35772 
3.66938 
2.46173 
3.68668 
2.32875 
3.76173 
3.60223 
2.26831 
3.72077 
3.70029 
2.30792 
2.27615 
3.70653 
2.46272 
2.36971 
2.30749 
2.33195 
3.75057 
3.76656 
3.76393 
3.76107 
3.70233 
2.32579 
2.32579 
2.34249 
2.43532 
3.75199 
3.74482 
2.37472 
2.24237 
3.75125 
2.4893 
2.3721 
3.73491 
3.71099 
2.35376 
3.71212 
2.31349 
3.62428 
3.7497 
2.34694 
2.31308 
3.6492 
2.37919 
2.42756 
3.64387 
3.75004 
2.47021 
2.33788 
3.68751 
2.4096 
2.30295 
3.7209 
3.72692 
3.66314 
2.32266 
3.75355 
2.34534 
2.3637 
2.39746 
3.59881 
2.32006 
2.36014 
3.69994 
3.67756 
2.44731 
3.69942 
2.37839 
2.45957 
2.39928 
3.75528 
3.76296 
2.23392 
2.36349 
2.37225 
2.20573 
3.75102 
2.46854 
2.40483 
2.43775 
3.64697 
2.35673 
2.27978 
2.29736 
3.6678 
3.71216 
3.66606 
3.60461 
2.24024 
2.36086 
2.19585 
2.39484 
3.75393 
3.75087 
2.47645 
2.36025 
2.34268 
2.2462 
3.63868 
3.73698 
2.33138 
2.39059 
3.74818 
3.74945 
3.66987 
3.76219 
2.40691 
2.32877 
2.32189 
2.36456 
3.65157 
3.71387 
2.30297 
3.75383 
2.37219 
3.70761 
3.65683 
2.33381 
2.34768 
2.31632 
3.75754 
2.42078 
3.76852 
2.383 
3.69897 
2.38275 
2.34309 
3.74965 
2.29586 
3.63037 
3.75505 
2.41749 
2.33444 
3.73938 
2.24016 
2.31788 
3.74798 
2.4049 
2.37724 
2.38982 
3.68227 
2.35185 
2.33643 
3.74935 
3.74098 
3.7372 
2.43056 
3.66212 
2.38643 
2.31317 
2.26579 
2.38968 
2.29132 
2.3596 
3.71226 
3.71947 
2.44066 
2.26354 
3.68721 
3.73648 
3.76169 
2.39252 
3.7315 
2.37443 
3.71908 
2.35125 
2.4044 
3.6988 
2.35567 
3.7184 
3.69624 
2.44959 
3.72019 
2.3011 
3.71567 
2.2347 
3.74796 
2.32914 
2.32134 
3.7577 
2.37461 
2.44427 
2.37071 
3.73334 
3.63782 
2.26481 
2.41961 
3.69977 
3.69424 
2.42505 
3.68613 
2.34593 
2.33562 
3.74612 
2.31552 
2.33009 
3.74724 
3.76185 
2.26139 
2.36659 
2.28338 
2.24412 
3.69569 
2.37444 
2.3013 
2.50873 
3.71202 
3.61586 
3.73069 
2.27557 
2.37068 
3.74561 
2.36361 
2.32899 
3.75702 
3.63358 
2.24879 
3.72512 
2.38344 
3.76349 
3.76936 
2.31696 
2.4795 
3.68168 
2.35131 
2.35355 
2.37061 
3.76141 
2.58107 
3.71217 
2.31454 
3.68612 
3.76231 
2.33163 
2.38551 
3.68396 
2.30736 
2.305 
3.76308 
2.23495 
3.75615 
2.38836 
2.41309 
2.31714 
2.35736 
2.32939 
3.70353 
2.36762 
3.60521 
2.48983 
2.31547 
2.41387 
2.29702 
3.66985 
3.74365 
3.66256 
2.25555 
2.40372 
2.3042 
3.75129 
3.56073 
3.49968 
3.73337 
2.22753 
2.26396 
2.40243 
2.44171 
2.2428 
2.38696 
2.31932 
3.61552 
3.6827 
3.75378 
3.64204 
2.48635 
2.38813 
2.45336 
2.38536 
2.28172 
2.3589 
2.34785 
2.37755 
2.29605 
2.31648 
3.73394 
3.70705 
3.73205 
3.74939 
2.3334 
3.69082 
2.43713 
3.75014 
3.61575 
3.75836 
2.35689 
2.34751 
2.22577 
2.40236 
3.74645 
3.65931 
2.40167 
2.35869 
3.62396 
2.45716 
3.7313 
2.29887 
3.75884 
2.35835 
2.32194 
3.69259 
2.37636 
2.28429 
2.35347 
2.51892 
3.742 
2.39879 
2.36451 
2.28829 
3.64081 
3.70031 
2.30204 
2.31626 
3.64853 
2.32159 
2.39629 
2.29766 
3.7381 
2.39657 
3.6674 
3.59423 
2.36382 
2.37883 
3.75412 
2.22864 
2.43406 
2.38433 
3.69899 
2.29498 
3.71271 
2.34385 
3.54497 
3.70023 
2.35139 
2.34127 
3.76261 
2.32947 
2.4021 
3.7311 
2.37634 
3.73528 
2.37668 
2.28364 
3.66819 
2.21928 
3.70374 
3.69965 
2.54616 
3.73361 
2.22729 
2.3798 
2.46841 
3.64422 
2.32807 
3.61845 
2.28349 
2.44088 
2.3185 
3.69948 
3.76436 
3.74134 
2.4069 
2.41035 
3.7363 
2.39115 
2.20803 
2.37391 
2.38056 
3.74744 
3.70634 
3.74602 
3.7343 
3.70949 
2.25068 
3.7252 
2.28182 
2.33134 
3.69784 
3.72597 
3.71195 
2.36308 
2.31416 
3.67141 
2.25677 
2.42041 
2.36885 
3.50112 
2.32124 
2.39522 
3.71875 
2.319 
3.61259 
3.63883 
2.35698 
2.33682 
2.53266 
3.60564 
3.71292 
3.73084 
2.32754 
3.73806 
3.74131 
3.73887 
2.26 
2.21097 
3.64461 
2.37358 
3.55385 
3.73385 
2.50706 
2.33511 
2.25432 
3.75851 
3.71621 
3.70901 
2.31792 
2.27733 
2.42581 
3.7007 
3.75693 
2.33446 
2.29573 
3.68859 
3.71909 
2.38409 
2.41376 
2.35423 
2.24719 
3.71754 
3.67346 
2.54191 
2.27299 
2.38197 
3.7654 
3.68838 
3.74217 
3.63388 
2.32411 
2.2616 
2.37031 
2.32621 
3.68182 
3.73573 
2.35666 
3.74083 
2.29427 
2.44126 
2.36235 
3.66467 
3.7199 
3.75775 
3.64159 
2.26579 
3.73622 
2.28771 
3.55975 
2.36428 
2.23251 
3.69787 
2.38594 
2.29775 
2.45064 
2.34406 
2.47788 
2.31503 
2.2086 
2.2951 
3.72307 
2.35731 
3.76466 
2.35251 
2.38259 
2.33614 
3.75411 
3.7633 
3.72627 
2.2818 
3.73069 
2.36644 
2.32648 
3.68117 
2.43017 
3.71519 
3.73614 
3.66203 
2.26507 
3.64769 
2.42637 
3.69948 
3.65141 
2.4204 
2.30419 
2.27919 
2.4892 
2.25317 
3.58609 
2.25742 
2.3039 
2.31934 
3.68025 
3.55497 
3.63116 
2.4342 
3.70785 
2.46802 
2.33457 
3.67307 
3.76939 
2.49334 
3.74483 
3.62143 
2.31818 
3.59638 
2.25106 
3.7552 
2.36707 
3.71576 
3.75948 
2.35739 
3.64685 
2.37948 
2.45675 
2.35547 
3.716 
3.69126 
3.74107 
2.43669 
2.34297 
3.67289 
3.72297 
2.27731 
2.31399 
2.27899 
2.35409 
3.7575 
2.32859 
2.38185 
3.57059 
3.7568 
2.33343 
2.279 
2.36106 
3.74597 
3.65987 
3.74304 
2.44834 
2.34213 
3.72763 
3.75374 
3.66364 
2.49864 
2.26426 
3.61577 
2.48455 
2.41488 
3.75126 
2.32304 
3.76568 
2.35769 
2.26673 
2.38044 
3.73967 
2.35203 
2.32442 
2.32697 
2.41179 
3.65121 
3.75854 
2.4692 
3.70428 
2.35625 
3.74608 
2.2767 
3.73241 
2.43662 
3.75003 
2.34242 
3.6781 
3.71635 
2.33771 
2.39309 
3.71342 
3.68617 
2.41779 
2.35223 
2.17889 
2.4431 
3.72462 
3.60624 
3.69108 
2.4448 
2.30207 
3.74479 
3.64721 
3.70107 
2.30512 
2.30102 
3.74375 
2.44924 
2.38371 
3.74434 
3.73768 
2.44193 
2.34702 
3.71398 
3.75046 
3.70007 
2.2518 
2.30028 
3.69955 
2.32503 
2.55813 
3.67385 
3.64418 
2.36518 
2.29733 
3.73544 
2.33068 
3.6532 
2.37551 
3.69539 
2.32842 
2.34953 
2.4893 
3.65924 
3.67843 
3.60777 
2.28122 
3.70963 
2.43343 
2.40869 
2.27552 
2.52109 
2.53691 
2.42971 
2.46623 
3.71742 
3.66754 
2.38954 
3.68593 
2.36457 
3.68797 
3.70296 
2.4346 
2.34422 
2.37091 
2.32689 
3.71524 
2.35287 
3.59659 
2.27558 
2.38776 
2.3534 
3.71017 
3.67725 
3.74738 
3.73918 
3.75751 
2.4178 
3.75188 
2.24871 
3.73553 
2.39909 
3.56783 
3.60977 
3.75928 
2.34072 
3.68314 
3.69384 
2.3861 
3.68884 
2.21749 
3.70127 
2.36331 
2.45806 
2.28782 
2.29029 
3.68932 
3.73598 
3.7595 
2.35899 
3.6878 
2.39902 
3.70026 
2.26528 
2.47387 
3.62971 
3.76139 
3.76812 
3.70469 
2.28904 
2.3374 
3.69727 
3.74424 
3.75029 
3.73415 
2.37872 
2.24281 
3.73868 
2.42757 
3.69752 
2.31642 
3.6995 
2.35037 
2.44914 
2.3843 
2.28772 
3.68921 
2.45264 
2.41385 
2.33972 
2.48801 
2.35519 
3.68877 
2.42152 
3.7282 
2.41442 
2.39199 
2.4691 
2.29168 
3.65599 
2.34924 
2.29808 
2.38477 
3.75897 
2.29949 
2.38413 
2.31079 
2.32719 
3.73574 
3.71242 
2.32944 
2.2811 
2.52526 
3.64486 
2.30131 
3.54432 
2.26822 
2.53126 
2.39344 
3.76338 
3.76674 
2.33794 
2.46428 
3.71371 
2.39762 
2.32579 
3.48824 
2.32302 
2.2523 
2.35718 
2.45049 
3.73282 
3.64036 
3.77076 
2.41147 
3.59886 
3.7629 
2.28378 
2.34107 
3.74269 
3.74659 
3.68173 
2.3148 
2.19792 
2.42435 
2.44322 
3.77041 
2.34817 
3.72494 
2.26012 
3.75682 
3.71606 
3.768 
2.37616 
2.33044 
2.40049 
2.34567 
3.68304 
2.30761 
2.3331 
2.40096 
3.68893 
3.76698 
2.34888 
2.39131 
2.27193 
2.29946 
3.64084 
2.29784 
2.44995 
2.34889 
2.43875 
3.70891 
2.34992 
3.75796 
2.40105 
2.30827 
2.34515 
3.70303 
3.65911 
2.412 
2.34591 
3.63922 
2.38256 
2.26134 
3.73711 
3.74053 
3.68889 
3.68927 
3.73276 
3.75427 
2.34889 
3.77101 
2.35522 
2.38702 
2.32885 
2.31474 
3.72446 
3.65635 
3.73809 
2.32046 
2.34855 
3.67248 
2.3164 
3.75085 
2.42819 
2.35489 
3.73717 
2.3169 
2.37833 
2.24484 
3.74148 
3.73758 
3.66492 
2.40812 
3.58604 
2.42575 
2.37439 
3.73603 
2.40692 
3.70966 
2.36882 
3.73796 
2.30969 
2.33034 
3.7464 
3.71533 
3.7553 
2.36697 
2.52696 
2.38014 
2.3276 
3.74587 
2.30588 
3.71123 
2.21864 
3.71502 
2.401 
2.37193 
3.72394 
3.73501 
2.34041 
3.66309 
2.23522 
3.62677 
2.41915 
2.37 
2.44254 
2.29954 
3.71268 
2.33108 
3.73418 
3.65685 
2.35316 
3.75474 
2.42875 
2.26714 
2.33896 
3.69587 
2.41426 
3.76119 
2.31318 
2.39658 
3.59225 
2.26781 
3.71312 
3.68924 
2.3984 
3.72409 
2.44162 
3.76119 
3.70638 
2.2506 
3.63803 
3.69985 
2.27531 
2.29961 
3.73813 
3.59181 
3.66174 
2.25177 
2.35695 
3.73837 
2.40576 
2.40021 
3.75712 
2.3311 
2.40106 
2.33953 
3.73831 
3.73412 
3.66045 
2.27785 
3.63884 
3.72666 
2.3181 
2.55049 
2.35832 
3.6765 
3.44908 
2.28142 
3.71334 
3.7709 
2.40677 
3.76051 
2.44173 
3.73319 
2.44105 
3.71479 
2.33026 
3.75974 
3.67559 
3.60846 
2.24392 
2.28396 
3.63552 
2.38967 
3.73975 
2.38221 
3.66713 
2.35828 
2.51688 
2.46715 
2.43786 
2.39224 
3.75474 
3.71427 
2.34247 
3.69293 
3.58907 
2.29224 
3.76687 
2.44681 
3.65729 
3.62342 
3.73832 
3.64875 
3.71976 
2.35744 
3.70829 
3.75741 
2.33189 
2.32795 
3.6794 
2.32661 
3.70746 
3.74697 
2.33464 
2.33109 
2.20153 
3.76917 
3.72096 
3.7452 
2.19677 
2.35433 
3.76587 
3.72875 
2.32118 
2.36504 
2.37338 
2.40287 
3.65299 
3.67344 
3.71301 
2.33707 
2.42245 
3.49801 
2.44249 
2.39469 
3.73517 
3.74256 
2.40859 
3.72938 
2.40728 
3.68281 
3.63343 
2.32793 
2.28733 
3.74183 
2.38947 
2.27978 
3.66882 
3.72029 
3.74325 
2.38296 
2.43713 
2.30586 
3.71933 
2.36792 
2.40266 
3.75112 
2.39479 
3.69823 
2.32493 
3.60968 
2.33737 
3.73327 
2.31988 
2.3558 
3.68167 
3.67608 
2.46223 
2.22946 
3.69903 
2.37736 
3.6516 
2.37423 
3.7032 
2.28152 
2.37694 
2.30269 
3.66457 
2.35662 
2.24778 
2.27788 
3.52341 
2.39337 
2.3955 
3.57088 
3.66181 
3.64456 
3.6387 
2.37499 
3.71712 
2.32193 
3.708 
3.49569 
3.71635 
2.42846 
2.44095 
3.52639 
2.29442 
2.28934 
3.74273 
2.42288 
2.24373 
2.36895 
2.31963 
3.51942 
3.55421 
3.69929 
3.73336 
3.66869 
3.72682 
2.34285 
2.35956 
3.69565 
2.44352 
2.36287 
3.74451 
2.37579 
2.26111 
3.75322 
3.66189 
2.34803 
2.43498 
3.62107 
2.41184 
2.38627 
3.72094 
2.26381 
3.76957 
3.7422 
2.28128 
2.37962 
3.65231 
2.26573 
3.72276 
3.69667 
3.76853 
3.69127 
2.42518 
3.74256 
2.40258 
3.66902 
2.32989 
2.3808 
2.36853 
3.69684 
2.27112 
3.72224 
3.7444 
2.27031 
2.32371 
3.72965 
3.66532 
3.75117 
2.32662 
2.43552 
3.75415 
3.72851 
2.37337 
2.30704 
3.63164 
3.65559 
2.49205 
2.27289 
3.76829 
2.13244 
3.50422 
2.32875 
3.73868 
2.31387 
3.71741 
3.59185 
2.37762 
3.62286 
3.65333 
2.36361 
2.29948 
3.7427 
2.32635 
2.29534 
3.63759 
2.3302 
3.68991 
2.45103 
3.76507 
2.3545 
2.36535 
3.75787 
2.44273 
3.68266 
2.41107 
3.59334 
2.3279 
2.39867 
2.38365 
3.74502 
2.37416 
3.68557 
2.30778 
2.42893 
2.30541 
2.47881 
3.609 
3.65815 
2.4057 
3.75702 
2.33739 
2.38725 
2.32254 
3.67491 
2.40186 
2.42601 
3.67291 
2.39135 
2.22879 
2.29399 
3.75006 
2.38664 
2.41945 
2.28932 
2.42271 
3.71822 
2.3151 
3.75195 
3.72308 
2.21753 
2.34512 
3.72517 
3.57064 
3.75055 
2.34579 
2.47982 
2.40138 
2.392 
2.29964 
3.75206 
3.75685 
2.36261 
3.64143 
2.29186 
3.69304 
2.3065 
3.6465 
3.68769 
3.76711 
3.73428 
2.23889 
2.39999 
3.67353 
2.47408 
2.35744 
3.75941 
2.39164 
2.34453 
3.74573 
3.72393 
2.34418 
2.3365 
2.43766 
3.72362 
2.31127 
3.72877 
2.35128 
3.68103 
2.42719 
3.76296 
3.67735 
3.6918 
2.19677 
2.41123 
3.67433 
2.28657 
2.46264 
2.39161 
2.34676 
3.63741 
3.70038 
3.68212 
2.32666 
2.39538 
3.76133 
2.37007 
2.38249 
3.59853 
2.37145 
3.75326 
2.28877 
3.70598 
2.20481 
3.76707 
3.75079 
2.40079 
3.7601 
3.67272 
2.49864 
2.3397 
3.70647 
3.73621 
3.76762 
2.36737 
2.28983 
2.29155 
2.26359 
2.22703 
3.73408 
3.72103 
2.46078 
2.37399 
2.42809 
3.69495 
2.36227 
3.68129 
2.30198 
2.42589 
2.37263 
3.73492 
3.72755 
2.37405 
3.67801 
2.37812 
3.71909 
2.29875 
3.69465 
2.39596 
3.75255 
2.23905 
3.70334 
2.41187 
2.33169 
3.76679 
2.48375 
3.71906 
3.75962 
3.71986 
2.27374 
2.3319 
3.76389 
2.39892 
2.38946 
3.7597 
2.51865 
2.35424 
2.34182 
3.51768 
2.54226 
3.66907 
2.33052 
2.33006 
3.75714 
3.66418 
3.65283 
3.71825 
2.39509 
2.35155 
3.66721 
2.4537 
2.31926 
3.67602 
2.35133 
3.76835 
2.17827 
3.76145 
3.68082 
2.27758 
2.34067 
3.67066 
3.73088 
3.75205 
2.37391 
2.22183 
2.37699 
2.4519 
3.68891 
3.74142 
2.37226 
2.25192 
2.28511 
3.70909 
2.42708 
3.7472 
2.3087 
3.73574 
3.71382 
2.39973 
3.6645 
2.34511 
2.3056 
2.39405 
3.70961 
2.25045 
3.73738 
3.74584 
2.43699 
2.33682 
3.71346 
3.70606 
2.28585 
3.72749 
2.44604 
3.70892 
3.66864 
2.31088 
2.31435 
2.40772 
2.41953 
3.4858 
2.51318 
2.24932 
3.71595 
2.4307 
2.36279 
3.75462 
3.74221 
2.351 
2.45458 
2.29562 
2.37435 
2.40435 
2.40937 
3.75167 
2.27795 
3.66884 
3.73183 
2.30717 
3.74184 
3.73851 
3.68242 
3.7228 
2.31482 
2.34099 
2.24796 
2.33812 
3.74441 
3.7421 
3.73999 
2.35054 
3.65366 
2.4404 
2.23626 
2.37745 
3.73116 
2.50656 
3.64678 
2.45052 
2.32977 
3.71809 
2.32569 
2.39443 
2.39155 
3.70847 
3.66269 
3.68906 
2.48178 
3.75211 
2.29196 
3.767 
3.76313 
3.58576 
2.35531 
2.27096 
2.38817 
2.39917 
3.7294 
2.19855 
2.38002 
3.68033 
3.69604 
2.41472 
2.32783 
3.73408 
2.45093 
2.36636 
3.69014 
2.43677 
2.30279 
2.43301 
2.46975 
3.74641 
2.42313 
2.32741 
3.66554 
2.27957 
2.22657 
3.72512 
3.53223 
2.37833 
2.31648 
2.33958 
3.60708 
2.22071 
2.31669 
2.52916 
3.75666 
3.77008 
2.24506 
2.32108 
3.64435 
3.58897 
3.69871 
2.33805 
2.33028 
2.29598 
2.43097 
3.75979 
2.37721 
2.38387 
3.76221 
2.4765 
3.74059 
2.37073 
3.69475 
3.77041 
2.28558 
2.32486 
2.3508 
2.46312 
2.26715 
3.70029 
2.41962 
2.27878 
2.32465 
3.68647 
3.72265 
3.72718 
3.68524 
2.3679 
2.50574 
2.31379 
2.37299 
3.75104 
3.74876 
2.45927 
2.3346 
3.75734 
2.29484 
2.56691 
2.34331 
2.33638 
3.73922 
2.53207 
3.7194 
2.37608 
2.19799 
2.39926 
3.6901 
2.30181 
3.7499 
3.59507 
2.34531 
2.33559 
2.3424 
3.63078 
2.42271 
2.36334 
3.69474 
2.33488 
3.77007 
2.30356 
2.30888 
2.3632 
2.39853 
2.26544 
3.71675 
3.73571 
2.41258 
3.67603 
2.26868 
3.71946 
2.407 
3.72885 
2.38841 
3.65877 
2.35306 
2.40233 
3.72787 
2.32847 
3.69915 
3.73454 
2.40213 
3.57872 
2.36695 
2.3416 
2.41444 
2.36904 
3.76108 
2.39271 
2.41138 
2.42845 
2.51769 
3.65582 
2.32664 
2.35012 
3.72442 
3.75318 
2.30978 
2.48686 
3.76349 
2.35056 
3.71215 
2.34184 
3.6453 
2.28712 
2.37312 
3.7377 
2.47721 
2.29585 
3.66234 
2.32582 
2.27776 
2.27966 
2.31789 
3.71608 
2.39151 
2.37112 
3.75638 
2.32151 
3.75403 
2.34802 
3.66293 
2.3791 
3.76719 
2.26961 
2.43914 
2.33448 
3.75982 
3.762 
3.58152 
3.68796 
2.37819 
2.31856 
3.56703 
2.43567 
3.71308 
3.74667 
3.66651 
2.20721 
3.76155 
2.43044 
3.68264 
3.75737 
2.31389 
2.29268 
3.74563 
3.66049 
2.37662 
2.48114 
3.65274 
2.31615 
2.49064 
3.74017 
2.27509 
3.59047 
3.72635 
3.75323 
2.44529 
2.27051 
3.75131 
2.3234 
2.37352 
2.43842 
2.35266 
3.76152 
3.6596 
2.19943 
2.475 
2.42456 
3.76553 
3.61212 
2.27545 
2.25079 
2.55361 
2.308 
3.6792 
2.4258 
2.27084 
2.38786 
3.59826 
3.57302 
3.70165 
2.32495 
2.19885 
2.36937 
2.62971 
2.26631 
3.68637 
3.73511 
2.29966 
3.68118 
2.25875 
3.76811 
2.34162 
3.58391 
3.55344 
2.25065 
3.71254 
3.53417 
3.688 
2.34749 
2.34343 
3.75362 
3.6644 
2.39265 
2.24713 
2.37874 
2.43156 
3.71896 
2.31639 
3.62367 
2.33433 
2.46356 
2.32979 
3.6776 
3.59386 
3.75142 
3.74255 
2.2281 
3.76543 
2.4022 
2.30524 
3.69277 
3.74072 
2.29774 
2.43259 
2.35625 
2.29953 
2.37945 
2.4756 
2.31002 
2.29109 
3.73853 
2.2841 
2.33951 
3.68179 
2.36283 
2.17864 
2.43068 
2.37291 
2.24653 
2.47207 
2.33806 
3.68132 
2.32002 
2.20473 
3.63134 
2.31833 
2.36577 
3.76896 
2.34428 
2.37597 
2.28691 
3.76132 
3.67735 
3.73133 
3.61923 
2.38683 
2.43132 
2.27467 
3.75709 
3.72932 
3.72497 
2.29928 
2.44684 
2.36241 
3.72518 
2.39752 
3.77045 
3.65217 
3.75572 
2.22479 
2.34754 
3.68153 
2.43648 
3.75043 
3.60145 
3.76963 
3.70762 
2.33266 
2.286 
2.32871 
2.33479 
2.38002 
3.76091 
2.32588 
3.74686 
3.71087 
3.67603 
2.27123 
2.27196 
2.36433 
2.47131 
3.7208 
3.76366 
3.76971 
3.62296 
2.34425 
2.28674 
3.63643 
2.35995 
2.37152 
3.75489 
3.62652 
2.35651 
2.25175 
3.70187 
3.72732 
2.36066 
2.43568 
3.70354 
3.67138 
3.72793 
2.33576 
2.42356 
2.27011 
2.42508 
2.40974 
2.3314 
3.68786 
2.24115 
2.45002 
2.34626 
2.3276 
2.39735 
2.38477 
2.36612 
2.29663 
3.76417 
2.36464 
2.42339 
3.66064 
2.42783 
3.48765 
3.60011 
2.27802 
2.33079 
2.44262 
3.77093 
3.75012 
3.69361 
2.37141 
2.36685 
3.76381 
2.43214 
2.3414 
3.76252 
3.74129 
3.65502 
3.53181 
3.67741 
3.56708 
2.29901 
2.23457 
3.63025 
2.28179 
3.73907 
3.67403 
3.75823 
3.72488 
2.32413 
2.32273 
2.44878 
3.59519 
3.74542 
2.25359 
2.40957 
2.25467 
3.58288 
3.72725 
2.3745 
2.3327 
2.38802 
2.29509 
2.39391 
2.38436 
2.45181 
3.74397 
2.25746 
3.74897 
2.30799 
2.3812 
2.35742 
3.71003 
3.75353 
3.60709 
2.40279 
3.76229 
2.44332 
2.20154 
3.68179 
2.32107 
3.71173 
3.75216 
3.63871 
3.68845 
2.26412 
3.74112 
2.36091 
2.33449 
3.76295 
2.42355 
2.36374 
3.69303 
2.33811 
2.33099 
3.76535 
3.77058 
3.7673 
2.26336 
3.72279 
3.76238 
2.33305 
2.39082 
2.32234 
3.71654 
3.64931 
2.34444 
2.38939 
2.35191 
3.73103 
3.61579 
3.56916 
2.28469 
2.36432 
2.34243 
3.70067 
2.38998 
3.70004 
3.66492 
2.31069 
2.39166 
3.70082 
3.65114 
3.76344 
2.3285 
2.43088 
2.29446 
2.28693 
2.4544 
3.71193 
3.74232 
2.44655 
2.27161 
2.38671 
3.68129 
2.27254 
3.65722 
2.30177 
3.77108 
2.44177 
3.60265 
3.74034 
3.76939 
2.30911 
3.63084 
3.77036 
2.2242 
3.7402 
2.36047 
2.37473 
3.75751 
2.33678 
2.2641 
3.69581 
3.70331 
2.36866 
3.68142 
2.26687 
3.6431 
2.31504 
2.4354 
2.30565 
2.32599 
2.34266 
3.62365 
3.58593 
3.67338 
3.753 
2.39947 
2.23839 
3.67872 
2.25134 
2.40028 
2.35505 
2.24551 
2.38318 
2.46615 
3.71012 
2.31736 
2.32462 
2.31354 
2.38164 
3.74152 
3.76582 
2.38622 
2.3444 
3.53314 
2.31113 
2.32463 
2.52898 
2.43192 
2.34795 
3.73278 
2.43784 
2.40935 
3.66161 
3.76661 
2.26603 
2.43824 
2.39828 
2.29043 
3.6405 
3.72824 
3.74066 
3.70086 
2.21593 
3.6175 
3.67498 
2.40478 
2.32226 
2.31055 
3.73043 
2.33859 
2.34885 
2.35579 
2.33371 
3.69539 
3.72968 
2.44414 
3.70643 
2.31076 
3.65968 
2.40978 
3.69205 
3.68899 
2.45462 
2.37344 
3.54287 
2.40453 
2.28363 
3.76179 
3.73507 
3.76657 
2.24489 
2.347 
3.6501 
3.58399 
2.32679 
2.27558 
3.52969 
2.46387 
2.41682 
2.34114 
3.64588 
2.39341 
2.27555 
3.66028 
2.39627 
2.3806 
2.31582 
2.41268 
3.66391 
3.71002 
2.31945 
2.27664 
2.2845 
3.69155 
3.65437 
2.24795 
2.36339 
2.40764 
3.72168 
3.76417 
3.63062 
2.38615 
3.75414 
2.37129 
2.21801 
3.64398 
2.24113 
3.75335 
3.65789 
2.28968 
3.61945 
2.29952 
2.38205 
3.73719 
3.64444 
2.38674 
2.21493 
3.73974 
2.38563 
3.65844 
3.72818 
3.76731 
3.60081 
2.28308 
3.68972 
2.38023 
2.39848 
2.36568 
3.70285 
3.75056 
3.76845 
2.38811 
3.7406 
3.65665 
3.5815 
2.32087 
3.7377 
2.36075 
3.74485 
2.35704 
2.34199 
2.37902 
2.36423 
3.64866 
3.70996 
2.38952 
3.59756 
3.71618 
2.26599 
2.41935 
2.38209 
3.64929 
2.30778 
2.43392 
3.73023 
2.39995 
2.25991 
3.65105 
2.32818 
3.58066 
2.41418 
3.7498 
2.33201 
2.41269 
2.36373 
3.71623 
2.36361 
2.30642 
2.36055 
3.73844 
2.40443 
3.76103 
3.6222 
2.26329 
2.45926 
3.50251 
2.20283 
3.76138 
2.36155 
3.74198 
3.7643 
3.7405 
2.32248 
3.64924 
2.32531 
2.18709 
2.3745 
2.39782 
3.76827 
3.68666 
2.47268 
2.2352 
3.65805 
3.66498 
2.44028 
2.35543 
2.4211 
2.35649 
3.75111 
2.3424 
2.46311 
2.34166 
3.69071 
2.33552 
3.66238 
2.5411 
2.30531 