ITEM: TIMESTEP
90
ITEM: NUMBER OF ENTRIES
102759
ITEM: BOX BOUNDS pp pp pp
0 108.62
0 108.62
0 54.31
ITEM: ENTRIES c_pairDist 
3.73867 
2.29576 
2.45977 
3.69619 
3.66751 
2.30104 
3.70706 
2.42755 
2.31443 
3.63274 
2.38489 
2.36085 
3.73288 
2.37032 
2.38903 
2.31563 
3.75029 
3.76655 
2.28075 
2.35311 
2.45455 
3.73122 
2.36553 
2.31711 
3.6393 
3.75591 
2.45918 
3.76568 
2.33512 
2.35553 
2.38106 
3.74118 
3.75582 
2.3342 
2.28274 
3.74458 
2.31901 
2.30067 
3.70446 
3.68993 
3.74861 
3.71439 
2.33121 
3.69506 
3.64385 
2.24887 
3.72617 
2.23823 
2.3873 
2.38969 
3.74607 
3.75705 
2.30284 
2.35342 
3.72287 
3.74471 
2.27205 
3.76506 
2.27838 
2.35148 
2.29114 
2.37335 
2.33033 
2.27234 
2.39234 
3.66601 
3.77044 
2.38239 
3.67823 
3.69857 
2.30592 
3.66282 
2.36406 
2.38503 
2.3861 
2.2879 
3.67881 
2.35847 
3.75209 
2.32918 
2.35185 
2.45714 
3.70831 
2.36324 
3.73094 
2.3877 
3.60835 
3.72791 
2.2532 
2.30943 
2.36422 
3.76645 
2.32471 
2.35769 
2.32036 
3.74611 
2.39206 
3.73198 
2.42547 
2.34892 
3.7294 
3.73558 
2.37641 
2.34557 
3.68046 
2.34087 
2.34967 
2.35389 
3.75317 
3.74809 
3.76491 
2.24831 
2.28067 
2.30333 
3.75893 
2.37443 
2.32415 
2.38171 
2.4194 
2.33591 
3.64267 
2.35254 
2.3371 
2.40443 
3.73375 
3.73885 
3.76305 
2.30905 
2.39647 
2.33608 
2.39666 
2.35415 
3.73966 
3.75736 
2.32551 
2.35206 
2.35179 
2.30159 
2.37161 
3.76914 
3.61921 
2.34087 
3.60394 
2.31656 
2.26134 
2.27578 
2.3232 
3.66841 
3.74053 
3.75964 
3.76135 
2.4203 
2.42158 
2.31286 
2.30465 
3.72204 
3.74023 
2.402 
3.74091 
2.33019 
3.72007 
2.28704 
3.68962 
3.75159 
2.25894 
2.3711 
3.73464 
2.35304 
2.3788 
3.76606 
2.30488 
2.36284 
3.59431 
2.49626 
2.32269 
3.76662 
2.33319 
2.39549 
2.41827 
3.771 
2.4283 
3.69674 
2.33229 
2.26889 
3.66636 
2.31712 
3.73773 
3.76403 
2.38785 
3.71922 
2.26969 
3.72626 
2.42262 
2.34239 
2.37579 
2.37574 
2.41935 
3.74396 
3.759 
2.38251 
2.4113 
2.36073 
3.73138 
3.62152 
3.63874 
2.26271 
3.75385 
2.262 
2.27293 
3.69933 
2.30192 
2.34604 
2.29183 
2.33938 
3.71328 
2.35213 
2.32083 
2.31962 
2.3223 
3.60037 
3.62202 
2.3755 
3.68679 
2.33351 
2.35592 
2.34793 
3.75986 
3.71019 
3.70686 
2.32238 
3.68063 
2.31216 
2.36621 
2.32397 
2.387 
3.76687 
2.36703 
2.26949 
3.64116 
2.34511 
2.32596 
3.67022 
3.75142 
2.34007 
2.39069 
2.31478 
2.29791 
2.30536 
3.75509 
2.34339 
2.33523 
3.76077 
3.70872 
3.76038 
2.32317 
2.37162 
2.34073 
2.38193 
2.34534 
2.2694 
2.33089 
3.75749 
2.41233 
3.7604 
2.37615 
2.34939 
2.31485 
3.76018 
2.37761 
2.37774 
3.74697 
3.75893 
2.36005 
2.31378 
2.37882 
2.35265 
3.69911 
2.31876 
3.75576 
2.43296 
3.75935 
3.76408 
3.66197 
2.32184 
2.31387 
2.34294 
2.39812 
3.74679 
2.34271 
3.77082 
2.43176 
2.29542 
3.75278 
2.46476 
2.36682 
3.73688 
2.4035 
2.38061 
3.76646 
2.2966 
3.6221 
3.76022 
3.74622 
2.3097 
3.75867 
2.32395 
2.27408 
3.76288 
2.31484 
2.2905 
2.4033 
2.35856 
3.68002 
2.33957 
2.38075 
3.75376 
3.65924 
2.3952 
2.31618 
3.66836 
2.34484 
2.38314 
2.38535 
2.3687 
3.68467 
2.35258 
2.33203 
2.35647 
2.34866 
2.47169 
2.39957 
2.39286 
2.29124 
3.76229 
2.43465 
2.35375 
3.73299 
3.61992 
2.28608 
2.29747 
2.28098 
2.42796 
2.40862 
2.51655 
2.29688 
3.76565 
3.65481 
3.58239 
2.2898 
2.32728 
3.66845 
2.28269 
3.75344 
2.37397 
3.7231 
3.71773 
3.73996 
2.29539 
3.75957 
2.3902 
3.76721 
3.71231 
3.71916 
2.32848 
2.31378 
2.38139 
2.36561 
3.71417 
2.3656 
2.40626 
2.34876 
2.44581 
3.58075 
3.73686 
2.35136 
3.7048 
2.41546 
2.38069 
2.39017 
3.66931 
3.75653 
2.32791 
2.31963 
3.72962 
2.27679 
2.43408 
3.70758 
3.72238 
3.64008 
2.27097 
3.76978 
2.36738 
2.29981 
3.70237 
2.30283 
3.66967 
3.71604 
3.72219 
2.34917 
3.74384 
2.39556 
3.75628 
3.73551 
2.3629 
2.33529 
2.28859 
2.37127 
2.38999 
2.39442 
2.42564 
2.39646 
2.40712 
2.39865 
2.29934 
2.31901 
2.36968 
2.35077 
3.73471 
3.754 
2.33465 
2.37564 
2.37162 
2.3181 
2.35606 
2.42277 
2.37787 
2.36758 
2.37201 
2.41763 
2.29888 
3.74548 
2.39253 
2.33477 
3.72744 
3.75156 
2.3742 
3.71189 
2.36824 
2.26347 
3.75687 
2.34259 
2.35806 
2.32951 
2.3658 
2.32184 
3.75225 
2.37242 
3.75918 
3.72335 
2.2888 
2.31646 
2.25904 
2.38671 
3.75686 
3.72352 
2.35376 
2.39594 
2.32296 
3.69467 
2.34216 
2.45792 
3.71394 
3.74865 
2.34143 
2.41697 
2.37461 
2.34927 
3.66104 
2.43324 
2.33585 
3.73213 
3.70507 
3.71155 
3.66291 
2.3395 
2.29476 
2.3745 
2.36393 
3.69207 
2.39747 
2.30989 
3.73017 
2.38555 
2.33972 
3.76642 
2.38437 
2.29729 
3.73944 
2.34649 
2.29789 
3.69346 
3.70636 
2.31251 
2.34176 
2.43649 
2.31278 
2.38241 
2.39898 
2.39007 
3.7674 
3.71579 
3.73215 
3.76066 
2.35145 
3.7053 
2.30714 
3.7318 
3.76923 
2.34153 
2.3215 
3.68486 
2.33297 
2.35189 
2.39598 
2.33363 
2.32102 
2.37792 
3.74476 
2.3849 
2.35884 
2.29794 
3.71987 
2.29997 
3.70939 
2.42815 
3.77 
2.3419 
3.72098 
2.3816 
2.33855 
2.30287 
2.37441 
2.29817 
3.65554 
3.75808 
3.7487 
3.69147 
2.42184 
2.35274 
3.75828 
3.65429 
3.67285 
2.3488 
2.42551 
2.38207 
2.35518 
2.29565 
3.74794 
2.35437 
3.73192 
2.29784 
3.73044 
3.65014 
3.71058 
2.34619 
2.30523 
2.35974 
2.4244 
3.72506 
2.46327 
2.39733 
2.35435 
2.33181 
3.68943 
2.42801 
2.37547 
2.3221 
3.75684 
3.73021 
2.33539 
2.35294 
2.39428 
3.73559 
3.63587 
2.29632 
2.38007 
2.38167 
2.32096 
2.43682 
2.32305 
3.73416 
2.38604 
3.73397 
2.35863 
3.67258 
2.32772 
2.25847 
2.34755 
2.32566 
2.36138 
2.29561 
2.4021 
3.75265 
2.28053 
3.71561 
2.28093 
2.3206 
2.36286 
3.72609 
3.68585 
3.68786 
3.71717 
2.35886 
3.7387 
2.29855 
3.75238 
3.69415 
2.30563 
2.25212 
3.76985 
2.34326 
2.38262 
3.72942 
2.30222 
2.38332 
3.74619 
3.76185 
2.29629 
2.32426 
2.39361 
2.38462 
3.75247 
2.39243 
2.32303 
3.66821 
2.39645 
2.41489 
2.38744 
2.34275 
2.34607 
2.33133 
2.32542 
2.41037 
3.69919 
2.39155 
2.33024 
2.36082 
2.38563 
3.77072 
3.6958 
2.3783 
2.41411 
3.76007 
2.41139 
2.35429 
3.74589 
3.75331 
2.34513 
2.3026 
2.3926 
2.37426 
2.34995 
3.7585 
3.67755 
2.37301 
3.61666 
2.36131 
3.76042 
3.75565 
3.75372 
2.34751 
2.31503 
2.34686 
2.33309 
3.71175 
3.75198 
2.32382 
2.31394 
3.70734 
2.36595 
2.36779 
2.35756 
3.76498 
3.74254 
3.75237 
2.36016 
2.32841 
2.3449 
3.70633 
2.30755 
3.74218 
3.7711 
2.36783 
2.375 
3.72081 
3.69593 
3.69238 
3.71799 
2.3121 
3.75886 
2.29656 
2.35505 
2.35976 
2.39904 
3.66708 
2.31621 
3.65827 
3.71557 
2.38433 
3.69212 
3.66924 
2.33238 
2.40345 
3.73892 
2.36492 
2.30742 
3.74326 
3.73718 
2.40841 
3.72539 
2.29802 
3.76797 
2.38597 
2.35417 
3.7017 
3.72885 
2.31949 
3.63344 
2.29258 
3.76363 
2.39444 
2.30868 
2.3135 
2.441 
2.33217 
3.72597 
2.30995 
2.37281 
2.33146 
2.39649 
2.37492 
2.31868 
2.42523 
3.72775 
3.69717 
2.34082 
2.30804 
2.32623 
2.35022 
3.67241 
3.74187 
2.39112 
2.35529 
2.34176 
2.29872 
3.71685 
2.38155 
2.46948 
2.29653 
3.74725 
3.74975 
2.37989 
2.39293 
3.75203 
2.27774 
2.34432 
2.33223 
2.33655 
2.41458 
2.33608 
2.42228 
3.70337 
3.75873 
3.73978 
3.66329 
2.29869 
2.33179 
2.31983 
2.29741 
3.72826 
2.29394 
2.39379 
2.40891 
2.46009 
3.64953 
2.32284 
2.24987 
2.36853 
2.38379 
3.7613 
2.29944 
2.36346 
2.3408 
2.43905 
3.76893 
2.31749 
2.37253 
3.70129 
3.71247 
2.37788 
2.39402 
3.73809 
2.39936 
2.31033 
3.74989 
2.32026 
2.33465 
3.76743 
3.7104 
2.40632 
3.70815 
2.33081 
3.75071 
3.76332 
2.37856 
2.36372 
3.75334 
3.75329 
2.24201 
2.33338 
2.34849 
2.27699 
3.74361 
3.72394 
3.75246 
2.38939 
2.3601 
3.76341 
3.68483 
2.32258 
2.27833 
3.71022 
2.38659 
2.35469 
3.69813 
2.30386 
2.28847 
2.30162 
2.31202 
2.37927 
2.4481 
2.30377 
2.36249 
3.70857 
2.32619 
2.45046 
2.37101 
2.46185 
3.71448 
2.31386 
2.29763 
3.7433 
2.3694 
2.29084 
3.72701 
2.37277 
2.42814 
3.72792 
3.75774 
2.3081 
2.36544 
2.3268 
2.33324 
3.75463 
3.69241 
3.75402 
2.31065 
2.31261 
2.34258 
3.71205 
2.35658 
3.70341 
3.6037 
2.27808 
2.37514 
3.73086 
3.69669 
3.75232 
2.3362 
2.37996 
2.32549 
2.38613 
2.34769 
2.42587 
3.75207 
2.39783 
2.40334 
2.41397 
2.46679 
3.75907 
2.3237 
3.74585 
3.74621 
2.37086 
2.34659 
3.74957 
2.3321 
2.41011 
3.68637 
2.358 
2.33784 
2.34977 
2.32227 
2.28945 
2.28615 
3.66583 
3.75521 
3.75469 
2.44787 
2.34909 
3.69542 
3.73555 
2.36732 
2.30644 
3.72681 
2.332 
2.31813 
2.34966 
2.29568 
2.40519 
2.32582 
3.69236 
2.38703 
2.44561 
2.33308 
2.27916 
2.41097 
2.33228 
2.37395 
2.46253 
3.73887 
2.3055 
2.35317 
2.34285 
2.37665 
2.32209 
2.3678 
2.29671 
2.31422 
3.71023 
3.72545 
2.31214 
2.37795 
3.75356 
3.73403 
3.67551 
2.27597 
2.41239 
2.35105 
2.36216 
3.73501 
3.73438 
2.41598 
2.46908 
3.76906 
3.69553 
2.30809 
3.69465 
2.28952 
2.34682 
2.33761 
3.76237 
2.24286 
2.31518 
3.67907 
3.76528 
3.76111 
3.74975 
2.31163 
3.72652 
2.29063 
2.36568 
2.38944 
2.35354 
2.3129 
2.32558 
3.70424 
2.30103 
3.62835 
3.71054 
2.28177 
3.76612 
2.35919 
3.71775 
2.41435 
2.39213 
3.70786 
3.76743 
2.33591 
2.33556 
3.76703 
2.44699 
2.38854 
3.73852 
3.57748 
2.39537 
2.37281 
2.39236 
2.38897 
2.41945 
2.30607 
3.66559 
2.34186 
2.37938 
3.73751 
2.34508 
2.34165 
3.77089 
2.3978 
2.39887 
3.76117 
2.32294 
2.33316 
3.71047 
2.33302 
2.30746 
3.75023 
2.34845 
3.71576 
2.31273 
3.75847 
2.2769 
2.36375 
3.69853 
2.36091 
2.36425 
3.73699 
2.36962 
2.29979 
2.28943 
2.3528 
3.71191 
3.74426 
2.36055 
3.73986 
2.37905 
2.37975 
2.33482 
3.74533 
3.72916 
2.40161 
2.34521 
3.73418 
3.73342 
2.37432 
2.33709 
2.37965 
3.73547 
2.34775 
2.37181 
2.39053 
3.69317 
3.58694 
2.39363 
2.36111 
3.69527 
2.33532 
2.43341 
2.31167 
2.22219 
3.70775 
3.72954 
3.7367 
2.36791 
3.72422 
2.45696 
3.69385 
2.3657 
2.39888 
2.36122 
2.30366 
3.73652 
2.41812 
2.3154 
3.75798 
2.27862 
2.38366 
3.69448 
2.34875 
2.38952 
2.33375 
2.35345 
3.76518 
2.3866 
2.37872 
2.36565 
2.3287 
2.42245 
2.40733 
2.38292 
2.31314 
2.38027 
2.38695 
2.38257 
2.34755 
3.76165 
2.36918 
2.32476 
2.4263 
3.7499 
2.31949 
2.36293 
2.34717 
2.32635 
2.46083 
3.75466 
2.30623 
2.34002 
2.35995 
2.40543 
2.36216 
2.3263 
3.75406 
3.7665 
3.76926 
2.30484 
2.3658 
2.38134 
2.39711 
2.40475 
2.42609 
3.66365 
3.7378 
2.26853 
2.32934 
2.40606 
2.37696 
2.34195 
2.35624 
3.76533 
2.36068 
2.27448 
3.77004 
3.76543 
2.36675 
2.41715 
3.76757 
2.31214 
2.35295 
2.26299 
2.3518 
3.7551 
3.69988 
2.34289 
2.34613 
3.76764 
2.37522 
2.40282 
2.32098 
3.67533 
2.29894 
2.2907 
2.40696 
3.76173 
3.73446 
2.38934 
2.34461 
3.67301 
3.75301 
3.67789 
2.37322 
3.71111 
2.3502 
2.3996 
2.36506 
3.76357 
3.75274 
3.75633 
2.30272 
2.31179 
3.76968 
2.30721 
2.35928 
3.76183 
3.74427 
2.39452 
2.32355 
3.6771 
3.72624 
3.75716 
2.34695 
2.2406 
3.69495 
2.26214 
2.35834 
3.73063 
3.69807 
3.74526 
2.41943 
2.26125 
2.29846 
3.66156 
2.36446 
2.27941 
2.40301 
3.74169 
3.72107 
2.32518 
3.75221 
2.32888 
2.40531 
2.38472 
2.50842 
2.3501 
3.70911 
2.32016 
3.66949 
2.26952 
3.7249 
2.36261 
2.37753 
2.38526 
2.3364 
3.71414 
3.75422 
3.75055 
2.41462 
2.37268 
3.75539 
2.40055 
3.75889 
2.3031 
2.33928 
3.76528 
2.37687 
2.39853 
2.31622 
2.32041 
2.33743 
3.67717 
2.35069 
2.37897 
2.35381 
2.31972 
2.34161 
2.31072 
2.39704 
2.34396 
2.39241 
2.33288 
2.46217 
3.76144 
2.33735 
3.76687 
2.33919 
3.67999 
3.75618 
2.38205 
2.40287 
2.34808 
2.35905 
2.39392 
2.4087 
3.74337 
3.66111 
2.43882 
2.3559 
2.37645 
2.34151 
3.6805 
2.33899 
2.36705 
2.35524 
2.40218 
2.32468 
2.37969 
2.36124 
2.28767 
2.32364 
2.48886 
2.32053 
2.39117 
3.73418 
2.2843 
3.75953 
2.31966 
2.32482 
3.75922 
2.33916 
3.69888 
2.32958 
3.71783 
2.24375 
3.69148 
2.32172 
2.31149 
3.73025 
2.36827 
2.38063 
2.42073 
3.75387 
3.66868 
2.36528 
3.67057 
2.28527 
3.75031 
3.66993 
2.29383 
2.34987 
2.30909 
2.32967 
2.34838 
3.74011 
2.40303 
2.36291 
2.37286 
3.74953 
3.72165 
2.2367 
3.75909 
2.2864 
2.39949 
2.38627 
3.58185 
3.75525 
2.37438 
2.34053 
3.73921 
3.7655 
3.71395 
2.33944 
2.32159 
2.3659 
2.35144 
3.73249 
2.34782 
3.76865 
2.3387 
3.76933 
2.34009 
2.3565 
2.33985 
2.41912 
2.34894 
2.45092 
2.30271 
3.70314 
2.28575 
2.32417 
2.34334 
3.76217 
3.77108 
2.33349 
3.70429 
2.27007 
2.30211 
3.72743 
3.73254 
3.71143 
2.33412 
2.35174 
3.724 
2.36955 
2.36935 
2.3784 
2.44981 
2.39074 
2.38596 
2.3618 
2.28706 
2.33253 
2.33254 
2.42466 
2.37617 
3.75524 
2.39345 
2.36494 
2.31244 
3.73744 
2.35114 
3.70498 
2.31439 
2.34221 
2.39299 
2.35831 
3.67623 
2.37109 
3.71474 
2.3213 
2.38811 
2.30742 
2.32204 
2.40963 
2.35304 
2.37426 
2.31014 
2.36119 
3.76945 
2.32324 
2.34813 
2.36903 
2.38301 
3.76205 
2.33481 
2.39282 
3.75688 
2.34716 
2.3819 
2.45634 
2.34379 
3.72595 
2.31092 
2.34114 
3.7496 
2.35996 
3.73519 
2.37003 
2.30825 
2.34347 
2.3682 
3.703 
2.42131 
2.42942 
2.44606 
3.72567 
3.7599 
2.31847 
3.65988 
2.39036 
3.64967 
2.34121 
3.75398 
2.33957 
3.75229 
2.37823 
2.37623 
2.31192 
3.74516 
2.32903 
3.73103 
3.76853 
3.71715 
2.33949 
2.30902 
3.65716 
2.29889 
2.35464 
2.39584 
2.33738 
2.27153 
2.37586 
2.39008 
3.75169 
2.39077 
2.41247 
2.37193 
2.43243 
2.31298 
2.35686 
2.40958 
3.59228 
2.37073 
3.69966 
3.742 
2.3541 
2.3788 
2.38785 
2.28879 
3.69746 
2.36982 
3.75344 
2.3482 
2.46819 
3.75993 
3.75467 
2.30634 
2.34181 
2.38221 
2.33191 
3.73163 
3.72004 
3.73216 
2.35177 
2.41206 
2.35799 
2.33412 
2.37837 
2.38207 
3.73338 
2.33931 
3.76703 
2.38963 
3.68912 
3.75878 
2.27272 
2.31072 
3.73275 
2.49276 
3.68717 
2.37253 
2.34232 
2.39795 
3.74796 
2.31076 
2.33109 
3.7702 
2.35338 
2.42017 
2.35209 
2.37141 
2.33238 
2.40826 
3.65361 
3.7473 
3.67934 
2.30298 
3.75338 
2.37368 
2.34036 
3.73599 
3.75258 
2.33915 
2.30359 
2.35987 
2.36163 
2.46755 
2.4305 
3.76355 
2.38578 
2.42316 
2.35982 
2.37972 
3.76786 
2.3172 
2.34847 
3.68499 
3.74178 
2.40758 
2.37172 
3.74418 
3.72575 
2.43816 
2.4555 
3.67227 
2.37791 
2.41769 
2.46337 
2.42457 
2.41531 
2.34785 
3.76233 
3.68332 
2.31389 
3.70099 
2.3168 
3.7527 
2.34407 
2.36861 
2.37343 
2.33264 
3.73981 
3.76545 
3.74973 
2.28648 
3.73431 
3.74825 
2.3234 
2.3316 
3.72168 
3.716 
2.38496 
2.33116 
2.31999 
3.73766 
2.27413 
2.31368 
3.72757 
2.31504 
2.33588 
3.72966 
2.39589 
2.35928 
2.34197 
2.40465 
2.36016 
2.35338 
2.33355 
2.33637 
2.30887 
2.37856 
3.75725 
3.73945 
2.36102 
2.42626 
2.41948 
2.43052 
3.76997 
3.76417 
2.37373 
2.3407 
2.35136 
3.75595 
2.3561 
2.26868 
3.73031 
3.68971 
2.3456 
2.32986 
2.30315 
3.74921 
2.31239 
3.73302 
2.324 
2.33949 
2.42861 
2.36444 
3.75785 
2.38383 
2.40173 
2.29581 
3.72805 
2.29359 
2.35012 
2.36476 
2.30446 
3.71139 
3.63937 
3.69466 
2.34623 
2.32311 
2.33287 
2.39861 
3.73216 
2.45851 
2.34054 
2.29774 
2.36731 
3.71247 
2.31946 
2.40901 
2.41037 
2.3127 
3.69774 
3.67547 
2.30761 
2.3175 
3.70042 
2.31747 
2.3896 
3.71778 
2.3573 
2.32726 
2.30959 
3.73845 
2.38815 
2.40879 
2.39335 
2.40091 
2.3966 
2.26082 
3.69821 
3.75633 
3.71855 
2.29826 
2.30143 
3.77023 
3.65282 
2.41063 
2.26173 
3.74504 
2.30183 
2.30061 
3.75102 
3.728 
2.28595 
2.35621 
2.33532 
2.32377 
2.3605 
2.33738 
2.38558 
3.65117 
2.37247 
2.37452 
2.32219 
3.7429 
2.28876 
2.36429 
3.76331 
2.33228 
2.30912 
2.40345 
2.43162 
3.71355 
3.63212 
2.30294 
2.43937 
2.41659 
3.76724 
2.34543 
2.31979 
2.41039 
3.68293 
2.38556 
2.29272 
3.74388 
2.38734 
2.38106 
2.32724 
3.74083 
3.74786 
2.33085 
2.40188 
2.29829 
3.75528 
3.65071 
3.71761 
3.74064 
2.29602 
3.65024 
3.71735 
2.33252 
2.34421 
2.35951 
2.42808 
2.29722 
2.33483 
3.70444 
3.72082 
2.31805 
3.75524 
2.34407 
3.76875 
2.37041 
2.36089 
3.75587 
2.33199 
2.34808 
3.76623 
3.7154 
2.35675 
2.3877 
2.34576 
3.72231 
3.76134 
3.75791 
2.285 
2.37111 
2.29819 
2.39995 
3.7402 
2.34289 
3.7402 
2.40322 
3.75764 
3.60565 
2.35221 
2.39059 
2.33366 
2.35995 
2.27923 
2.34638 
2.30431 
2.32093 
3.65287 
2.32442 
3.57129 
2.38852 
2.24367 
2.35171 
3.75385 
2.35398 
2.35509 
2.2877 
3.74456 
2.4181 
3.66162 
2.44561 
2.39716 
3.71207 
2.37525 
2.26899 
3.6849 
2.27826 
2.28333 
3.76312 
2.39795 
2.3681 
2.36846 
2.43279 
2.26935 
2.34172 
3.75857 
3.7069 
3.71358 
2.37408 
2.35056 
3.61982 
2.2911 
2.42323 
2.32657 
2.38487 
3.66393 
2.41483 
2.40332 
3.72909 
2.30571 
2.39785 
2.36496 
2.3817 
3.75221 
2.41303 
3.72801 
2.35661 
3.7684 
2.34388 
2.31915 
3.73653 
3.72362 
2.3558 
2.36138 
2.338 
2.29908 
3.70471 
3.73399 
2.35951 
2.32385 
2.29223 
2.34674 
2.31216 
2.35991 
3.7372 
3.76855 
2.43105 
3.66475 
3.73318 
2.32361 
2.32439 
2.31855 
3.70964 
2.26341 
3.71578 
2.40888 
2.39538 
2.36525 
2.39819 
2.34412 
2.28119 
3.72989 
3.72202 
2.36849 
2.33904 
3.43825 
2.27041 
2.42793 
2.33983 
2.38153 
3.74547 
2.25903 
3.74953 
2.33493 
3.72999 
2.27704 
2.33756 
3.76606 
2.38258 
3.62853 
2.29811 
2.3924 
2.39164 
3.7671 
3.67756 
3.69395 
2.45407 
2.37662 
3.76518 
2.30105 
2.31736 
2.32426 
2.3784 
3.76388 
3.7598 
2.46713 
2.37618 
3.66306 
3.73192 
2.35852 
2.36164 
3.69271 
2.42503 
2.38797 
3.76036 
2.36274 
2.3892 
2.37491 
2.39713 
2.40283 
2.35703 
3.72161 
2.39293 
2.30891 
2.36185 
2.26359 
3.7477 
3.74893 
3.75446 
3.72502 
2.35907 
2.31321 
3.76263 
2.4102 
2.32468 
2.36093 
3.75269 
2.34972 
3.65068 
3.65894 
2.40026 
3.70942 
3.71454 
2.35865 
3.76744 
3.77014 
3.70649 
3.70181 
3.758 
2.32454 
2.33184 
2.40013 
2.32922 
3.70482 
3.67747 
3.71436 
2.36559 
2.32246 
2.32205 
2.41645 
3.75713 
3.73903 
3.75268 
2.32652 
2.29265 
2.26569 
2.41837 
3.7309 
2.33198 
2.37793 
2.3826 
2.2827 
3.74448 
2.36274 
3.75536 
3.76782 
2.42755 
2.35308 
3.63584 
2.34536 
2.36263 
2.3119 
3.76941 
3.68553 
3.68744 
2.34572 
3.7591 
2.23609 
3.74415 
3.69764 
3.73035 
2.42781 
2.43847 
2.33678 
2.31364 
3.75834 
3.76921 
3.75637 
2.32361 
3.59749 
3.76422 
2.36337 
3.74053 
3.74878 
3.72306 
2.32474 
2.28734 
2.36118 
2.38336 
3.70068 
2.31556 
2.41196 
2.3558 
2.39221 
3.73325 
2.33902 
2.35497 
2.32608 
3.75318 
2.37878 
3.72771 
2.34497 
3.77111 
3.74173 
2.36825 
3.72284 
2.4024 
2.31732 
3.76621 
2.40357 
3.77094 
2.32389 
3.7471 
3.74298 
2.42897 
3.72382 
2.33845 
2.33115 
2.27239 
2.35228 
3.6204 
3.66743 
3.64024 
2.30124 
3.70434 
2.32011 
2.35366 
2.40689 
2.32533 
2.3336 
3.7584 
2.31991 
2.39678 
3.73383 
2.34591 
2.35093 
3.65633 
3.74893 
3.74366 
2.38607 
2.37571 
3.69297 
2.41569 
2.3669 
2.39714 
2.39961 
3.75483 
3.75879 
2.36845 
2.32687 
2.40685 
2.31222 
3.76928 
2.39915 
3.76393 
2.41487 
2.41931 
2.42094 
3.69184 
3.69585 
2.35137 
3.72245 
2.37908 
3.72101 
2.43079 
2.36578 
3.74629 
2.31139 
2.35488 
3.7309 
2.32351 
2.33408 
2.49202 
2.31668 
3.76437 
2.32359 
2.34263 
2.3818 
2.4243 
3.72796 
2.28693 
2.38048 
2.3098 
2.25779 
3.76631 
3.76703 
2.34724 
2.3738 
2.31785 
2.29816 
3.7352 
3.7372 
3.71448 
3.76393 
2.40636 
2.3125 
2.42977 
2.33833 
3.69399 
3.75742 
2.41932 
2.32627 
2.37345 
2.42344 
2.29912 
2.34648 
3.60682 
3.65199 
2.33326 
2.36973 
3.72425 
2.3341 
2.44988 
2.35938 
2.34423 
3.72184 
3.69103 
2.42475 
2.30452 
3.75134 
2.42045 
2.38538 
3.74249 
2.27746 
2.3619 
3.67667 
2.34521 
2.41165 
3.71018 
3.73255 
3.67268 
2.38906 
2.34295 
2.52486 
2.32507 
3.664 
3.74879 
2.30189 
3.75339 
3.70386 
2.37902 
2.36043 
2.2739 
3.71741 
3.69811 
2.36376 
2.4121 
3.74746 
3.74136 
3.70279 
2.30781 
2.2994 
2.30742 
2.35438 
2.34392 
2.31126 
3.72496 
3.68426 
2.35267 
2.29102 
3.69861 
3.76404 
3.72476 
3.64897 
2.32703 
3.75786 
2.30972 
3.71859 
3.76321 
2.36067 
2.32788 
3.70527 
2.34387 
2.31337 
3.7095 
2.3485 
3.76495 
2.32388 
3.71204 
2.39956 
2.41638 
3.60264 
2.37478 
2.40406 
3.72784 
2.34751 
3.67242 
2.42945 
2.34788 
2.3708 
3.70103 
3.74662 
3.6366 
2.50676 
2.34926 
2.31394 
2.2737 
2.34345 
2.30281 
3.76546 
2.38366 
2.37943 
2.42427 
2.32678 
3.6858 
3.74168 
3.72513 
2.36948 
2.37203 
3.75895 
2.35553 
2.29399 
2.31924 
3.68507 
2.35928 
3.71656 
3.75446 
2.41612 
2.34712 
3.76521 
2.34632 
2.32562 
2.32851 
2.36549 
3.74233 
2.33438 
3.7636 
2.39867 
3.70783 
2.319 
3.64201 
3.64812 
2.28596 
3.72501 
3.64113 
2.34124 
2.35914 
2.33339 
2.39799 
2.31764 
2.31619 
3.7527 
2.45694 
2.36157 
3.72375 
2.29479 
2.28984 
2.33808 
3.74577 
2.33977 
2.40025 
2.34443 
3.70842 
2.40868 
2.4127 
2.36094 
2.37711 
3.73579 
2.37205 
2.29872 
2.30822 
3.76657 
2.2951 
3.71336 
3.75992 
2.4272 
2.33993 
3.69919 
3.74777 
3.70481 
2.36545 
2.34193 
3.76118 
2.37666 
2.33156 
3.75189 
2.34736 
3.73907 
2.38085 
3.7264 
3.74806 
3.76666 
2.27957 
2.30283 
2.31344 
2.3464 
2.45116 
3.70118 
2.38237 
2.35084 
3.71148 
3.73151 
2.39365 
3.71375 
3.68668 
2.37967 
2.31038 
3.71627 
2.27843 
2.31181 
2.29275 
3.76856 
2.34575 
3.7048 
2.27042 
3.71686 
2.35895 
2.38869 
2.36263 
2.35013 
3.76985 
2.31718 
3.57416 
2.33089 
2.3778 
3.65138 
2.33008 
2.48673 
2.34717 
3.76423 
2.39018 
3.73952 
2.28947 
3.73009 
2.29766 
3.75917 
3.70504 
2.36236 
3.73249 
2.34622 
2.38825 
2.35604 
2.30286 
3.69713 
2.34009 
3.6861 
3.75391 
3.75708 
2.37068 
2.29507 
3.74864 
2.35801 
2.39694 
2.40502 
2.47616 
2.26109 
2.33044 
3.756 
3.59182 
2.37058 
2.36417 
3.62602 
2.36514 
2.41785 
2.3715 
2.32156 
3.76287 
2.27187 
2.44829 
3.75271 
3.7408 
2.37441 
2.30635 
3.73909 
2.36758 
3.72241 
2.31571 
2.41121 
2.3507 
2.32391 
3.75287 
2.28609 
2.41671 
3.76479 
2.38442 
3.73105 
3.72474 
3.75802 
2.38699 
2.34942 
2.40931 
2.38794 
3.76636 
3.74514 
2.3148 
2.38889 
3.74354 
3.65022 
2.35088 
2.36144 
3.72389 
2.37027 
2.3901 
3.75344 
2.31655 
2.36163 
2.30369 
3.69559 
2.38868 
3.66005 
2.29305 
3.7026 
2.33516 
3.60779 
3.74563 
2.36036 
2.31687 
3.74009 
2.36255 
3.76589 
2.39353 
3.74259 
2.43486 
2.31659 
3.7219 
3.68613 
2.40428 
2.38303 
2.36666 
2.40854 
3.74795 
2.28155 
2.36994 
3.77048 
2.38031 
2.34122 
2.34772 
2.35575 
3.69759 
2.36108 
2.40775 
3.7592 
2.35478 
2.3877 
3.73053 
3.76491 
2.34786 
2.33936 
2.31947 
2.43205 
2.41115 
2.30833 
3.67228 
3.75737 
3.62624 
2.48139 
2.36213 
3.74759 
2.35945 
2.33085 
3.67675 
3.70666 
3.71594 
3.74726 
2.26246 
2.33221 
2.32821 
2.3421 
2.30328 
2.35156 
3.73017 
2.42981 
3.72444 
2.36611 
3.73165 
2.35662 
3.73303 
2.35181 
3.74328 
3.74174 
2.30753 
2.27159 
2.3904 
2.31933 
3.74577 
2.34635 
2.38983 
3.72146 
2.31199 
2.34883 
2.32764 
2.38611 
3.60712 
3.70349 
2.24286 
2.28914 
2.32332 
3.71686 
2.2796 
3.73692 
2.40426 
2.40025 
2.37997 
2.32128 
3.74887 
3.77021 
2.33148 
2.36661 
3.68061 
2.42309 
2.32715 
2.29946 
2.32414 
2.3965 
3.74721 
2.30598 
2.3395 
2.38951 
3.66827 
2.30761 
3.69194 
2.2997 
2.35947 
2.30287 
2.39781 
2.36774 
2.37237 
3.75796 
2.34547 
3.76446 
2.33929 
3.74796 
2.32257 
3.74141 
2.39243 
2.3086 
3.72105 
2.32275 
2.3193 
2.38533 
2.38716 
2.38422 
2.38297 
2.28455 
2.30642 
3.62155 
2.34789 
2.27799 
3.66327 
3.68 
2.35705 
2.33111 
3.75748 
2.3941 
3.72033 
2.34761 
3.70082 
2.3058 
3.75633 
3.69989 
2.38587 
2.40984 
2.42323 
2.35971 
3.70044 
2.38159 
2.3349 
3.76495 
3.66233 
2.35931 
3.7046 
2.33995 
2.33612 
2.38409 
2.32532 
2.33702 
2.36988 
2.40336 
2.39017 
3.75273 
2.42032 
2.34397 
3.70746 
2.32935 
2.35065 
2.37157 
2.27187 
2.36809 
2.26913 
2.33255 
2.35263 
2.39922 
2.39045 
2.44951 
2.36163 
2.31838 
2.36586 
2.29932 
2.37744 
3.74608 
2.43492 
3.71686 
2.28192 
3.72357 
2.37769 
3.76046 
3.76438 
2.38419 
2.39707 
2.33959 
2.36535 
3.73385 
2.37838 
2.36738 
2.31982 
3.76079 
3.73722 
3.68745 
2.27942 
2.32209 
2.36038 
3.72694 
3.7407 
3.7689 
2.3502 
2.39143 
2.28994 
3.61724 
3.74741 
3.73125 
2.3593 
2.34374 
2.38682 
2.38429 
3.73073 
2.35774 
2.43033 
2.33332 
2.37052 
3.72878 
2.36968 
3.73831 
2.33885 
3.70446 
2.34677 
3.71081 
2.37773 
3.71054 
3.72231 
2.41371 
3.76552 
2.36814 
2.34383 
3.74079 
2.30939 
2.33361 
3.75477 
2.30579 
2.39293 
3.75094 
3.66243 
2.44206 
3.68503 
2.35263 
2.37246 
2.32826 
3.62369 
2.41139 
2.40974 
3.63369 
3.70612 
2.30634 
3.75488 
2.29201 
3.72084 
3.69548 
3.69628 
3.75953 
2.33744 
2.39016 
3.75216 
2.36261 
2.42958 
3.71596 
2.36316 
2.28663 
3.63693 
3.76869 
2.28259 
2.36166 
2.26812 
2.37801 
3.74174 
2.36255 
2.34987 
3.68421 
2.30159 
2.35658 
3.73966 
3.72217 
3.76714 
3.7562 
2.33688 
2.38552 
3.75823 
3.69441 
2.37539 
2.43024 
3.73856 
2.3804 
2.3404 
2.3448 
3.75285 
3.74527 
2.31461 
3.66037 
2.35395 
2.34346 
2.31128 
2.32546 
3.72054 
2.34986 
2.31384 
2.34941 
2.38734 
2.36799 
2.39902 
3.73372 
2.39152 
2.35138 
3.68522 
2.34528 
2.32824 
2.38518 
2.3253 
3.67369 
3.71066 
2.20275 
2.28194 
3.72536 
2.37491 
3.77047 
2.33633 
2.36457 
2.34097 
2.33661 
3.76098 
3.71059 
2.38445 
2.30114 
3.74725 
2.32855 
2.45538 
2.39348 
2.34694 
3.73898 
2.3127 
3.75782 
2.38914 
2.33132 
2.287 
3.71066 
3.76963 
3.76487 
3.73068 
3.76837 
2.37446 
3.7557 
2.28486 
2.28526 
3.72 
2.30683 
2.30399 
2.33264 
2.32799 
2.35279 
2.50607 
3.75352 
2.3571 
2.33839 
2.3797 
2.3912 
2.33605 
3.76429 
2.30871 
2.34778 
3.72306 
3.76823 
2.33558 
2.33771 
2.36643 
3.76531 
2.32668 
3.76236 
3.66389 
2.32648 
2.38198 
2.29565 
2.39442 
2.33866 
2.34386 
3.76723 
2.33373 
3.74361 
2.32397 
2.38401 
2.38196 
2.35299 
2.31021 
3.74348 
2.35574 
2.42465 
3.75938 
2.4543 
2.42444 
3.72272 
2.32377 
2.40329 
3.7311 
2.36881 
2.34015 
2.39944 
2.42493 
3.75882 
3.7654 
3.76283 
2.45053 
2.36023 
3.71964 
3.72802 
2.31279 
2.33535 
2.39902 
2.38519 
2.31319 
2.30106 
3.72485 
2.34665 
2.3923 
2.35236 
2.3508 
2.35152 
3.63143 
2.29922 
2.37767 
3.76847 
2.36348 
2.35102 
2.37912 
2.38636 
3.75784 
3.75358 
3.70362 
2.36814 
2.38835 
2.35841 
3.73966 
2.37033 
2.37312 
2.3881 
2.34343 
2.3022 
3.73898 
2.40787 
2.32503 
3.71518 
3.76719 
3.72509 
2.33903 
3.68377 
2.44927 
3.759 
3.69093 
3.76862 
2.30554 
2.29305 
2.36588 
2.39469 
3.73125 
2.33238 
2.39491 
2.31921 
2.27869 
2.3475 
2.34454 
2.34261 
3.76559 
3.76588 
3.74164 
2.33399 
2.35885 
3.76194 
3.72253 
2.28686 
3.75779 
2.33493 
2.35907 
3.75894 
3.60624 
3.70524 
2.32899 
2.37432 
3.73257 
2.43265 
2.43806 
2.36813 
2.40316 
2.38416 
2.35744 
2.29463 
3.63899 
3.6879 
3.70614 
3.75036 
2.36568 
2.31201 
2.32281 
3.75145 
2.3607 
2.36227 
2.30333 
2.35944 
3.71143 
3.74967 
2.40369 
2.40624 
2.39849 
3.70387 
2.39012 
3.74705 
3.72277 
2.35567 
2.30292 
2.37626 
3.69043 
3.72486 
3.7328 
2.33783 
2.34739 
2.33917 
3.74141 
2.35893 
2.30937 
2.38488 
2.44786 
3.76498 
2.39704 
2.46053 
2.35178 
3.74577 
2.40932 
2.28335 
3.74671 
2.42835 
2.37523 
3.76574 
2.3706 
3.77025 
2.37848 
3.73116 
2.34902 
3.76344 
2.32641 
3.70664 
3.74284 
2.32032 
3.76172 
2.3833 
2.33875 
2.35936 
3.75139 
2.34641 
2.35076 
2.42655 
3.74689 
2.34775 
2.40337 
2.42583 
2.45373 
2.37986 
3.72337 
2.36289 
2.36089 
3.75423 
2.39902 
2.34624 
3.75974 
3.69995 
2.37954 
2.43529 
3.76621 
3.64836 
3.63188 
2.33403 
2.41862 
2.36049 
2.35198 
3.73931 
2.36642 
3.73848 
2.316 
2.33443 
2.35078 
3.7572 
3.71208 
2.30288 
2.38352 
2.32095 
3.6632 
2.34586 
2.32155 
2.31073 
2.38141 
3.68097 
3.7159 
2.28081 
3.72376 
2.38312 
2.3008 
3.76918 
3.76705 
2.31633 
2.33626 
2.28732 
2.29641 
2.35311 
3.59605 
2.36527 
2.29418 
3.63974 
3.73306 
3.70824 
2.263 
3.75927 
2.33699 
2.31858 
2.36048 
3.75549 
2.31151 
2.3547 
2.41413 
3.66044 
2.29113 
3.66814 
2.42174 
2.28196 
3.6666 
3.66745 
2.40302 
2.39155 
3.75252 
2.32023 
2.30989 
2.4548 
2.36987 
3.76734 
3.75696 
2.32154 
2.49281 
2.36496 
2.39447 
2.31411 
2.41464 
2.41651 
3.72543 
2.40501 
2.30604 
3.74624 
2.39119 
3.63329 
2.35907 
3.71729 
3.70719 
3.75875 
2.35971 
2.26753 
3.68858 
3.73383 
2.31504 
2.42031 
2.40858 
2.36442 
3.75312 
2.29489 
3.76152 
2.27825 
3.72603 
2.40554 
2.2956 
2.35414 
2.34181 
2.32648 
2.36558 
3.76521 
2.30614 
3.75495 
2.34465 
3.71773 
2.361 
2.31051 
2.34657 
2.33136 
3.66778 
2.40746 
3.71298 
2.37524 
2.43826 
3.73457 
2.35626 
3.69228 
2.45296 
2.29246 
3.76164 
3.69575 
2.32784 
2.25924 
2.28786 
2.3207 
3.7133 
2.30455 
2.36775 
2.37461 
2.3765 
3.76409 
2.28326 
3.76166 
2.38607 
2.31444 
3.69042 
3.76319 
2.30766 
2.33192 
2.36293 
2.34068 
3.74918 
3.74696 
3.73977 
3.72714 
2.39173 
2.29641 
3.75274 
2.43645 
3.76702 
2.26174 
2.36788 
2.36601 
2.36393 
3.72155 
3.67804 
3.76466 
2.42865 
3.74594 
2.33768 
3.67733 
2.30045 
3.62774 
2.3252 
3.66305 
3.75516 
2.40744 
2.45584 
3.76866 
3.68936 
2.34883 
2.31821 
3.74698 
2.43516 
2.28677 
3.76611 
2.34463 
2.39498 
3.744 
3.69066 
2.35803 
2.3209 
3.74664 
2.33419 
2.36785 
3.72073 
2.36088 
3.65299 
2.30505 
2.31587 
2.32547 
3.6649 
3.68167 
2.23431 
2.26295 
3.71319 
2.28452 
2.34249 
3.73653 
2.38714 
2.33247 
2.39615 
3.65529 
3.73086 
2.32329 
2.3344 
2.35543 
3.69475 
2.41197 
2.37861 
2.34256 
3.67912 
2.37737 
3.76952 
2.30017 
3.62561 
2.29668 
3.68412 
3.70753 
2.37648 
2.41136 
3.74812 
2.35339 
2.35438 
3.76053 
2.2926 
2.39478 
3.71132 
3.75752 
2.35731 
2.35032 
3.72404 
2.38565 
2.32124 
3.76181 
3.76811 
3.70917 
2.33307 
2.32274 
3.66507 
2.43134 
2.28125 
2.33026 
3.76331 
3.62568 
3.77021 
3.69815 
2.41038 
2.48249 
2.4452 
2.42669 
2.27804 
3.76734 
3.67967 
2.26911 
3.73904 
3.6941 
3.69501 
3.60402 
3.73563 
3.71599 
2.4246 
2.28014 
3.75581 
2.3244 
2.40829 
3.75189 
2.35657 
3.6912 
2.34902 
3.76019 
2.33849 
2.35478 
2.4463 
2.36326 
3.71077 
3.76965 
2.31322 
2.33485 
2.34486 
2.32838 
2.38505 
3.74971 
3.74052 
3.74554 
2.32274 
2.38795 
2.31032 
2.34858 
3.72097 
2.31644 
2.32273 
2.28758 
3.72859 
2.39663 
2.41559 
2.52103 
2.41323 
2.4029 
3.75509 
2.32915 
2.35704 
3.75366 
2.29977 
2.30084 
3.75412 
2.33008 
2.47618 
3.72118 
2.29725 
2.26527 
3.70166 
2.44796 
2.3867 
2.36661 
2.43312 
2.34979 
2.33348 
3.76676 
2.38418 
2.31773 
2.3408 
2.34235 
3.75744 
2.34318 
2.35942 
2.39396 
2.34505 
3.71497 
2.32263 
3.71231 
2.32142 
3.75185 
2.39431 
3.71939 
2.37582 
2.33994 
2.36414 
3.73903 
3.72161 
2.34862 
3.7583 
2.32752 
2.40201 
2.38003 
3.72253 
2.34056 
2.3881 
3.70929 
2.34133 
2.40377 
3.62193 
2.42619 
3.65036 
2.27404 
3.64214 
2.41477 
2.31879 
2.35945 
2.44952 
2.3605 
3.76071 
2.31861 
3.71585 
3.76687 
3.70733 
3.73684 
2.31527 
2.40687 
3.74294 
2.33469 
2.32625 
3.72963 
3.68834 
3.63003 
2.33017 
2.25919 
3.69633 
3.7384 
2.35521 
2.32705 
3.7129 
3.74421 
3.72046 
3.74239 
3.7591 
2.28809 
3.7653 
2.28386 
3.76595 
3.76173 
2.33637 
2.28052 
3.73874 
3.75824 
2.32629 
3.76085 
2.38676 