ITEM: TIMESTEP
30
ITEM: NUMBER OF ENTRIES
113697
ITEM: BOX BOUNDS pp pp pp
0 108.62
0 108.62
0 54.31
ITEM: ENTRIES c_pairDist 
2.33445 
2.39172 
3.75216 
3.68817 
2.42704 
3.77047 
3.76167 
2.31463 
2.31828 
2.37052 
2.338 
3.76572 
3.67734 
3.71246 
2.3647 
3.73965 
2.35155 
2.35328 
2.31277 
2.37604 
3.68263 
3.75445 
3.51721 
2.37631 
2.37276 
2.39885 
2.38821 
2.37221 
3.6618 
3.76926 
2.3198 
3.71076 
3.63024 
2.33614 
2.27394 
3.71818 
2.45311 
2.42048 
2.39973 
2.40939 
2.34006 
2.33666 
2.35349 
3.69742 
3.75012 
2.34914 
3.74925 
2.32083 
3.74198 
2.36792 
2.373 
2.45315 
3.76315 
2.39235 
2.42248 
2.44366 
2.30023 
2.3685 
3.70272 
3.68756 
3.75154 
3.75187 
3.74405 
2.34662 
3.69954 
2.33992 
2.33617 
2.48806 
2.43299 
2.3606 
3.74306 
2.3625 
2.33531 
3.56307 
2.29892 
2.3358 
3.76718 
3.74624 
3.64507 
3.62494 
2.31749 
3.7386 
2.33376 
3.57117 
2.33434 
2.43218 
2.43023 
2.36078 
2.44336 
2.3699 
3.73418 
2.44432 
2.34117 
3.71313 
3.57547 
3.72215 
2.29989 
2.30831 
3.66294 
2.28685 
2.43821 
2.41646 
3.69375 
3.76951 
2.35222 
3.7438 
3.64939 
2.29394 
3.76829 
2.3069 
2.3122 
2.32051 
3.67199 
2.32512 
3.72768 
2.35865 
2.35901 
2.42342 
2.41926 
3.71269 
2.37096 
3.76057 
3.7038 
2.31239 
3.66043 
2.41483 
2.32968 
2.3066 
3.7202 
3.69733 
2.31632 
2.32216 
2.34656 
2.31523 
2.29554 
2.31613 
2.36403 
2.31355 
2.33702 
2.36541 
3.74931 
3.76356 
3.72634 
2.37694 
3.64173 
2.37341 
3.61628 
2.38539 
2.35393 
2.31143 
3.71341 
3.72416 
3.75663 
2.30707 
3.6133 
3.7249 
2.36521 
2.26758 
3.73824 
2.41385 
2.4414 
3.73587 
2.37995 
2.37384 
3.72598 
2.36499 
2.34356 
3.73415 
2.32107 
2.35705 
2.37604 
2.33698 
3.76064 
2.3515 
3.69448 
2.29586 
2.29853 
2.33563 
3.5829 
3.67165 
3.76098 
2.3441 
2.31713 
2.37647 
2.36693 
3.70361 
2.38583 
3.68061 
3.66742 
2.35087 
2.37697 
2.38772 
3.75413 
2.27059 
2.36529 
3.7141 
2.32421 
2.36826 
3.68892 
2.37699 
3.76857 
3.74644 
2.36379 
2.31318 
2.37204 
3.7491 
2.29099 
2.29109 
3.68709 
2.40798 
2.31286 
3.61805 
3.72709 
3.56033 
2.30489 
3.73712 
3.72883 
3.76062 
2.2541 
3.73748 
2.29254 
2.31505 
3.72078 
3.75463 
3.6898 
2.33316 
3.73763 
2.41331 
2.3479 
2.28599 
3.70842 
3.76351 
2.33639 
3.75561 
2.28955 
2.33099 
2.37064 
3.71199 
2.34924 
2.35845 
2.34274 
2.33271 
2.33052 
2.39942 
2.39154 
2.39838 
3.63657 
2.34954 
3.66074 
2.36072 
2.44166 
2.35032 
3.70745 
3.75702 
2.37462 
3.73517 
2.35646 
2.39841 
2.39249 
3.75784 
2.40354 
3.7604 
2.43985 
2.36642 
2.38035 
3.71125 
3.71296 
3.76313 
2.40633 
3.66829 
3.76952 
2.36487 
2.34539 
2.35682 
3.71817 
3.72897 
2.33643 
3.66205 
3.76907 
2.34775 
2.35583 
2.26981 
3.70854 
3.62581 
2.28026 
3.75119 
2.22746 
2.33599 
2.35981 
2.33697 
3.73419 
3.6564 
2.33153 
2.36013 
2.31842 
3.64183 
3.74932 
3.53743 
3.68713 
3.66361 
2.3048 
3.6529 
2.31856 
3.69053 
2.28767 
2.32286 
3.74504 
2.36764 
3.73183 
2.46232 
2.44618 
2.36736 
2.38484 
3.61621 
2.31721 
3.67422 
2.38967 
3.74715 
2.31721 
3.72692 
3.74351 
3.7648 
2.32647 
2.3235 
2.35044 
2.37628 
3.73439 
3.73912 
2.37402 
2.33423 
2.36188 
2.39604 
3.61486 
2.37233 
2.35613 
3.76216 
2.40307 
2.35785 
3.73444 
3.6551 
3.7036 
2.37513 
3.71956 
2.34799 
2.30671 
3.71179 
2.37838 
3.73638 
3.76909 
2.35085 
2.41024 
2.37254 
2.34765 
3.76585 
3.66731 
2.30043 
3.67872 
2.3054 
2.34416 
2.35271 
3.65246 
3.72185 
2.41425 
3.58606 
3.66638 
2.34047 
2.34923 
2.3635 
3.71437 
2.3364 
3.76144 
2.38131 
2.33763 
3.73822 
2.37931 
3.74024 
3.73714 
3.7447 
2.30077 
2.35693 
2.4014 
2.38788 
3.68271 
3.5524 
2.32483 
3.68905 
3.76302 
2.38157 
2.30929 
2.28154 
3.73385 
3.72986 
3.68453 
2.3358 
3.66731 
2.36829 
2.26001 
3.71785 
2.28086 
3.74067 
3.76574 
2.32286 
2.3059 
2.29895 
3.69242 
2.35155 
2.38445 
3.73233 
3.58944 
2.34546 
2.32533 
2.38031 
3.74878 
2.36056 
2.287 
2.34749 
2.35819 
3.72899 
3.75246 
3.76397 
3.73036 
3.69995 
2.35559 
3.72869 
2.38552 
2.41697 
2.33954 
3.76991 
3.7196 
3.70919 
3.64472 
2.37232 
2.35755 
2.36492 
2.35246 
3.61139 
3.76402 
2.36509 
3.76556 
3.72929 
2.35908 
3.75427 
2.32759 
2.3591 
3.6607 
3.66989 
2.38425 
2.41414 
2.36902 
2.37593 
3.73577 
2.37866 
3.70711 
3.76957 
2.29703 
3.76715 
2.34028 
2.29348 
3.7517 
2.28332 
3.71097 
2.33425 
2.33494 
2.3896 
3.72797 
3.68175 
2.39832 
3.70135 
2.32064 
3.74997 
2.30607 
2.36701 
3.72581 
3.68276 
2.3802 
3.76437 
2.43402 
2.39589 
2.31338 
3.73673 
3.71882 
2.32007 
3.66519 
2.27201 
2.31136 
2.39746 
3.74253 
3.76549 
2.41109 
3.73696 
2.3648 
2.37183 
2.34324 
3.71375 
3.67902 
2.33887 
3.76897 
2.35683 
3.71253 
2.38202 
2.3404 
3.54768 
3.7511 
2.3428 
3.71733 
2.3147 
3.70873 
2.35164 
2.38912 
3.65098 
2.37167 
2.33911 
2.344 
2.31782 
3.7516 
3.75072 
3.68355 
3.7494 
2.27435 
3.6461 
2.38686 
2.3367 
3.71286 
2.31466 
3.69889 
3.72832 
3.5129 
3.56909 
2.31326 
3.60723 
2.31587 
2.3407 
2.27502 
3.71996 
3.70807 
2.31345 
3.76763 
2.27052 
3.74817 
2.37594 
2.35598 
3.69692 
2.36027 
3.75015 
3.72713 
2.37986 
2.33619 
2.37424 
3.74871 
3.7261 
2.3266 
3.66497 
2.31196 
2.32478 
3.75065 
2.42209 
3.76767 
3.59582 
3.76949 
2.41655 
3.75246 
3.65048 
2.37992 
3.70995 
2.33134 
3.68755 
2.38778 
3.75137 
2.32309 
3.70724 
2.31662 
2.34143 
2.30806 
3.71882 
2.37528 
2.29841 
3.63581 
2.32666 
2.40143 
3.72154 
2.35058 
3.57885 
2.33411 
2.36585 
2.36844 
3.62818 
3.75657 
3.75543 
2.39289 
3.54415 
2.39792 
2.33602 
3.75294 
2.32449 
3.7094 
3.57633 
3.69977 
2.3821 
2.249 
3.75377 
2.36597 
2.4163 
3.72905 
2.36286 
3.75488 
2.28987 
3.76002 
3.74171 
3.71065 
2.35167 
3.72935 
3.71672 
3.74721 
2.39106 
2.36852 
3.76654 
3.76597 
3.76448 
3.7029 
2.29387 
3.76138 
3.70466 
3.68084 
3.74278 
2.37412 
2.29898 
3.75064 
3.67255 
3.77092 
2.38577 
3.71485 
3.68211 
3.58928 
2.29448 
3.72515 
3.7199 
2.35482 
3.53697 
3.72248 
2.39947 
3.76637 
2.36537 
3.76687 
3.6317 
2.38893 
2.34983 
3.75227 
2.3573 
3.68383 
3.74576 
2.36111 
3.76044 
2.34778 
3.68099 
2.3492 
3.74798 
2.35545 
3.76056 
2.44548 
3.71419 
2.32013 
3.72485 
2.34099 
2.3299 
3.64392 
2.32488 
2.35838 
2.33921 
3.69005 
3.68906 
2.34635 
2.41433 
3.76826 
3.67315 
2.32626 
2.38081 
2.34769 
2.3326 
3.58267 
3.59154 
2.37127 
2.37663 
3.71088 
2.39272 
3.76036 
2.43532 
2.48692 
2.36825 
2.31864 
2.31954 
2.34522 
3.77029 
2.30847 
3.5382 
3.76204 
2.29494 
2.40092 
3.66353 
2.32018 
2.31044 
3.63684 
2.36719 
3.76769 
2.34133 
3.69042 
3.68877 
2.37886 
2.39209 
3.74575 
3.71037 
2.3312 
3.73197 
2.33485 
2.41992 
3.69252 
3.75284 
2.27506 
3.7553 
2.38132 
3.67612 
2.35606 
2.41893 
3.75725 
3.70401 
2.41362 
2.37943 
2.39443 
3.76061 
3.67281 
3.74181 
3.68584 
2.40518 
2.39832 
2.3123 
2.34905 
3.71486 
3.72993 
2.43176 
3.61959 
2.35334 
2.37394 
3.76011 
2.3752 
2.37009 
2.28334 
3.77064 
3.66328 
2.39936 
3.7096 
2.36939 
2.31465 
3.61366 
3.73691 
2.37679 
3.68254 
2.32046 
3.74686 
2.28126 
3.7465 
3.76044 
3.68651 
2.36129 
3.73218 
2.39198 
2.3214 
2.33036 
3.64162 
3.69677 
2.31742 
3.74362 
2.40726 
3.7313 
2.38942 
3.58238 
2.35606 
2.37985 
3.7243 
3.74004 
2.3403 
2.31167 
3.68285 
2.38418 
2.38806 
3.76673 
2.30419 
3.68618 
2.39573 
3.64708 
2.40063 
3.75053 
3.61268 
2.28672 
2.35696 
2.34573 
2.40203 
3.76838 
3.69167 
3.71608 
2.29815 
2.37584 
2.35239 
2.31598 
3.77087 
2.34263 
2.51746 
3.66449 
2.34149 
2.34814 
3.70035 
2.3558 
2.40399 
3.7406 
2.36462 
2.35094 
3.72847 
2.37817 
3.76282 
3.74887 
2.38159 
3.75936 
2.38442 
2.33513 
2.33679 
2.34501 
3.63159 
2.32176 
3.58092 
2.34005 
3.70877 
2.40202 
3.75474 
2.41947 
2.38537 
3.73647 
2.3358 
3.70195 
2.33514 
2.31844 
2.37085 
3.68602 
3.69291 
2.37234 
2.32474 
2.37468 
3.7064 
2.32401 
3.75217 
2.2354 
3.71793 
3.75327 
3.67754 
2.35103 
2.34094 
3.63933 
2.35206 
3.72875 
2.3589 
3.76271 
3.58386 
2.31964 
2.33579 
3.71674 
2.28838 
2.40082 
3.77038 
3.76301 
2.40843 
2.36604 
2.34002 
2.43386 
3.75093 
2.3512 
3.74455 
3.67811 
3.68383 
2.29495 
2.32167 
3.63068 
2.29532 
3.70788 
3.74767 
2.37177 
2.3742 
3.70014 
2.37796 
3.66073 
2.33178 
3.74942 
3.6488 
2.36248 
2.32689 
2.3295 
3.70714 
3.613 
3.72813 
2.3275 
3.65106 
3.68456 
2.34187 
2.42479 
3.52573 
2.33551 
3.74778 
2.39133 
3.75667 
2.35165 
3.72648 
3.72393 
2.36114 
3.76772 
2.31826 
3.72509 
2.42506 
3.7283 
2.34139 
3.75962 
2.32048 
2.36132 
3.72256 
2.3654 
2.32568 
3.7489 
2.36091 
2.41432 
2.32657 
3.76286 
2.34207 
3.72237 
2.36955 
3.73581 
2.33411 
2.34426 
3.67696 
2.27013 
3.5858 
2.3904 
2.37075 
3.75625 
3.76963 
3.6489 
2.22158 
3.7106 
3.7231 
3.69547 
2.35531 
2.31913 
3.6192 
2.32098 
2.34634 
3.73161 
2.32548 
2.33468 
3.68835 
3.75144 
2.30827 
3.58375 
2.33775 
2.38067 
3.72516 
2.29409 
2.41194 
2.37957 
3.76163 
3.68033 
2.32436 
3.68799 
2.32749 
2.32944 
2.30766 
3.74722 
3.59304 
2.34555 
2.37711 
2.30397 
3.71432 
3.75371 
2.30931 
2.31575 
2.30991 
3.69068 
3.63578 
3.76742 
3.70558 
2.39006 
2.31488 
2.34522 
2.39221 
2.37681 
2.317 
3.64472 
3.62108 
3.75794 
2.39276 
2.42589 
2.30371 
2.31073 
3.72574 
3.68798 
3.72336 
2.31272 
3.75248 
2.30253 
2.35843 
2.31672 
3.62321 
2.30181 
3.61791 
2.37999 
3.65965 
3.69218 
3.76563 
2.47942 
2.39828 
2.42669 
2.4742 
2.3696 
2.29621 
3.70516 
3.76394 
3.67042 
3.7687 
3.76985 
2.34272 
2.33716 
3.66776 
2.30299 
2.33704 
3.55416 
3.69048 
2.33521 
2.29193 
3.72421 
2.32874 
3.65522 
2.36899 
2.3738 
2.39723 
2.32556 
3.77013 
2.30609 
2.27999 
3.65951 
2.35483 
3.70997 
3.63963 
2.4216 
2.39067 
3.71146 
3.72708 
2.37734 
3.69451 
2.36884 
2.44171 
2.39028 
3.65538 
3.74815 
2.52356 
2.35027 
2.25854 
3.74647 
3.73507 
2.43062 
2.3126 
2.30694 
3.70514 
3.72782 
3.76328 
2.32461 
3.65547 
2.32446 
2.40064 
2.31487 
3.76516 
3.67416 
2.49928 
2.42119 
3.73275 
2.36327 
3.66692 
2.28794 
2.27127 
2.37113 
3.69264 
3.68396 
2.26468 
2.29365 
2.34898 
2.36667 
2.40033 
2.35906 
2.3001 
2.36654 
3.69337 
2.34672 
2.32725 
2.32509 
3.75906 
2.338 
3.62042 
2.29865 
3.74276 
2.35513 
2.35271 
2.33015 
2.32942 
3.74696 
2.32737 
3.76742 
2.36346 
2.43968 
2.35476 
3.73713 
2.37863 
3.59561 
2.33036 
3.74646 
2.42804 
2.37197 
2.34567 
2.37923 
3.76308 
2.35168 
3.7014 
2.33719 
3.76529 
2.34945 
3.64135 
2.29384 
2.29622 
3.60872 
2.33957 
3.67772 
2.34754 
3.65414 
2.34992 
2.39634 
2.39713 
3.71191 
2.31147 
2.44954 
2.42834 
2.43424 
2.31759 
3.72186 
2.3747 
2.36007 
3.68612 
3.73161 
2.41211 
3.76618 
2.34248 
3.70869 
2.35171 
3.76103 
3.72982 
2.30073 
3.7131 
2.28674 
3.63576 
2.34942 
2.30302 
3.70969 
2.33925 
3.65045 
2.30947 
2.40636 
3.68162 
2.2831 
3.74598 
3.73568 
2.33162 
2.40866 
3.63203 
2.32833 
3.74117 
2.30998 
3.60261 
2.37435 
2.36914 
2.43262 
2.38817 
3.7139 
2.3445 
2.43714 
2.37573 
2.36865 
3.67494 
2.36635 
2.35878 
2.35667 
2.34281 
3.63658 
3.76177 
3.74559 
2.29686 
3.6793 
3.77002 
2.33409 
2.30606 
2.37687 
3.75572 
2.27491 
3.7402 
3.74359 
2.39122 
2.38391 
2.43417 
3.76153 
2.40183 
3.7211 
3.75931 
2.37308 
2.4028 
2.44578 
3.76595 
2.38648 
3.63139 
2.40132 
2.36979 
2.29422 
3.74057 
3.70487 
3.72039 
3.72332 
2.36202 
2.29412 
2.33303 
2.34423 
3.77005 
2.3755 
2.36996 
2.40086 
2.36616 
3.75849 
3.74712 
3.72675 
2.35744 
3.68046 
2.36128 
2.39541 
2.35407 
2.31852 
3.66464 
3.75148 
2.28657 
2.31125 
2.34898 
3.71012 
3.69506 
3.75686 
2.33229 
3.73187 
2.34534 
2.35649 
3.66045 
2.33456 
3.73098 
2.4606 
3.73629 
2.31246 
3.76923 
2.33385 
2.37158 
3.68553 
3.73426 
3.73097 
2.32785 
3.76486 
2.32791 
2.24057 
3.61437 
2.4126 
3.71855 
2.35091 
3.71776 
2.33063 
2.24929 
2.2954 
3.57916 
3.67196 
2.2729 
3.7047 
2.26739 
3.70798 
2.32651 
3.76312 
2.32731 
2.30317 
2.31668 
2.35195 
2.2995 
3.76418 
3.73849 
2.2939 
2.34492 
2.34553 
3.7537 
2.35632 
3.65933 
3.66167 
2.36767 
2.37309 
2.34534 
2.41387 
3.75855 
3.74555 
2.46546 
3.56361 
3.65546 
2.38668 
2.37968 
2.42077 
3.75685 
3.71852 
3.66009 
2.38934 
3.70305 
2.37288 
3.75948 
2.34265 
2.33657 
3.76728 
3.76349 
3.70883 
3.70402 
2.34847 
2.38259 
2.40506 
2.33321 
3.7689 
3.7309 
3.7266 
3.63837 
2.2917 
3.76188 
2.28949 
3.5547 
2.27753 
3.6839 
2.3434 
3.75228 
2.35384 
3.69626 
3.68482 
2.39014 
2.35062 
2.3732 
3.72888 
3.71027 
2.37912 
3.76454 
2.38443 
2.40631 
2.34907 
3.67412 
2.42842 
3.71787 
2.36313 
2.35508 
2.36485 
2.39406 
3.76201 
2.39534 
2.39695 
2.32711 
3.75105 
3.76149 
3.63761 
2.32181 
2.32768 
2.28428 
3.71982 
2.41744 
3.74736 
2.38693 
2.415 
2.39044 
2.42443 
3.75177 
2.32636 
3.70245 
2.34765 
2.37987 
2.40312 
3.74702 
3.66672 
2.36342 
3.66425 
3.73733 
2.43665 
3.76305 
2.35209 
2.29906 
3.75175 
3.69212 
2.32854 
2.31399 
3.67486 
2.33759 
2.43093 
3.72683 
3.76737 
2.31458 
3.61419 
2.27628 
3.75535 
2.36235 
2.37225 
3.76654 
3.75462 
3.74282 
3.67335 
2.29921 
3.63512 
3.62903 
2.28692 
2.2805 
3.6645 
2.34743 
3.74344 
3.62927 
3.69002 
3.75731 
2.40967 
2.40788 
2.33549 
2.37027 
2.41014 
3.66244 
2.41658 
2.42802 
2.29708 
3.69493 
3.76741 
3.63631 
3.48488 
2.36925 
3.74565 
2.30284 
3.65233 
2.33458 
3.69838 
2.36014 
3.72112 
3.67726 
3.77116 
3.7556 
2.38714 
3.73873 
2.35862 
3.623 
2.36107 
3.74731 
2.3438 
3.7472 
2.42636 
3.76319 
2.36356 
2.35025 
2.40198 
2.34941 
2.40444 
2.4111 
3.76773 
2.33335 
2.30295 
2.34964 
2.29719 
2.25757 
3.75865 
3.66817 
3.71864 
2.29282 
3.68741 
2.3208 
2.26618 
2.4092 
2.36968 
2.36709 
2.52115 
2.30347 
3.77108 
3.74043 
3.76161 
3.72203 
2.30986 
2.35576 
2.32859 
2.34678 
3.70285 
3.64409 
3.7237 
2.35333 
2.34729 
2.34705 
2.36912 
3.75368 
2.39562 
3.62726 
3.65127 
2.37722 
2.33128 
3.71456 
2.29565 
3.67112 
2.28066 
3.73548 
2.30144 
2.30068 
2.3091 
2.28488 
2.31447 
2.36484 
2.39608 
3.75556 
3.71912 
3.73957 
2.4286 
2.37853 
2.38574 
2.36367 
3.68576 
3.6655 
2.33486 
3.70466 
2.38238 
2.29384 
3.68096 
2.36851 
3.68996 
3.70369 
2.46275 
3.71574 
2.33319 
2.34968 
2.2877 
2.33908 
3.76035 
2.31353 
2.33944 
2.38381 
2.35985 
3.54809 
2.33047 
2.3649 
2.35855 
3.73713 
3.70178 
2.37946 
3.74233 
2.34972 
3.72415 
2.45227 
2.29297 
3.74516 
3.57886 
3.71326 
3.62887 
3.76765 
2.38056 
3.68427 
2.29584 
3.72484 
2.30947 
3.72708 
2.39018 
3.70781 
3.73394 
3.74587 
2.29182 
2.3343 
3.71622 
2.3176 
3.76133 
2.37554 
3.76458 
2.3226 
3.71123 
2.41183 
2.43401 
2.42832 
2.34529 
2.34845 
2.33205 
2.33835 
3.74693 
2.32382 
3.67725 
3.7622 
2.32638 
2.33123 
2.4361 
2.39124 
2.40142 
3.66532 
2.36774 
2.33744 
3.76732 
3.731 
2.38992 
2.39762 
2.36446 
2.37746 
3.69772 
3.59036 
3.75038 
2.35824 
3.72816 
3.74423 
2.45609 
2.27382 
3.74503 
2.37112 
3.72307 
2.37666 
2.35292 
2.33991 
2.37603 
3.7594 
2.3624 
2.39775 
2.42106 
2.34979 
3.60407 
3.72586 
2.31848 
3.67583 
2.36771 
2.30522 
2.39128 
3.65643 
3.72501 
2.40667 
3.62072 
3.64673 
2.36511 
3.76859 
2.32483 
3.75227 
2.3792 
3.7677 
3.697 
3.70097 
2.34219 
3.69907 
2.46103 
2.34184 
2.33115 
3.74213 
3.70628 
3.65506 
2.34499 
3.74103 
2.36125 
2.28819 
3.76723 
2.37362 
3.70449 
2.33006 
2.32282 
2.36715 
2.34376 
3.6156 
3.74708 
3.71634 
2.34121 
3.74847 
2.38445 
2.31 
2.49112 
2.3715 
3.68636 
2.41693 
2.35064 
2.39546 
3.65946 
3.71171 
2.39166 
3.63379 
3.72801 
3.77043 
2.35723 
3.68065 
2.35306 
3.71596 
2.31839 
3.69835 
3.77008 
3.67957 
2.25397 
3.62754 
2.36805 
2.31967 
2.31714 
3.7407 
2.27124 
2.2941 
2.34555 
2.4677 
3.73532 
2.33764 
3.59905 
2.34601 
2.3858 
3.70627 
2.26027 
3.75992 
3.54933 
3.75814 
2.32613 
2.31115 
2.28905 
3.75718 
2.34909 
2.29041 
2.36711 
3.76514 
2.37448 
2.34614 
3.71803 
3.75324 
3.72387 
2.30815 
3.65772 
2.38917 
2.33921 
2.33848 
3.68675 
3.60266 
2.34943 
3.74304 
2.33488 
2.32362 
2.31704 
3.65019 
3.74676 
2.34169 
2.34136 
2.36628 
3.62971 
2.3601 
3.74486 
3.7611 
3.69321 
3.74487 
2.34508 
3.68606 
2.37245 
2.29728 
3.76066 
2.29653 
3.70309 
3.70892 
3.69701 
2.4131 
3.74168 
3.60851 
2.50245 
3.66916 
2.30351 
3.73438 
2.32768 
2.40806 
3.65276 
3.67234 
2.36553 
3.70388 
3.70983 
2.32221 
3.74209 
3.72819 
3.68844 
3.66191 
2.34877 
3.53667 
3.75766 
2.35712 
3.6416 
3.5734 
2.32179 
3.75771 
3.66095 
3.6529 
2.29825 
2.27612 
2.27776 
3.60194 
3.58512 
3.70825 
2.31779 
3.75677 
3.64429 
3.6437 
2.36272 
3.67713 
2.34484 
3.74606 
3.66724 
3.76885 
2.34317 
3.72047 
2.33651 
3.76758 
3.77025 
3.62038 
2.34293 
2.28856 
3.74337 
3.7299 
2.28703 
2.31657 
2.39217 
2.37263 
2.45626 
2.40696 
2.35073 
2.36211 
2.37591 
3.6052 
2.44171 
2.42924 
2.28408 
2.31643 
3.67929 
3.76405 
3.73316 
3.68144 
2.24449 
2.33529 
3.74783 
2.36953 
2.36474 
2.37071 
2.35298 
3.61879 
3.69902 
2.35108 
3.7018 
2.30271 
2.2901 
2.34093 
3.69429 
2.40999 
3.65474 
2.36147 
3.70854 
3.71396 
2.32911 
2.38819 
2.38607 
2.3394 
3.70163 
3.67914 
2.37661 
2.37565 
3.57329 
3.72616 
2.37808 
3.64778 
2.38612 
3.71169 
2.385 
3.74244 
3.58187 
2.41371 
2.28524 
3.75309 
2.32907 
2.25168 
2.28988 
3.49477 
3.63429 
2.34449 
2.2791 
3.70279 
3.69787 
3.73256 
3.72743 
2.33385 
2.37829 
3.76741 
3.77062 
2.31275 
3.74119 
2.35546 
3.65265 
3.7281 
3.68986 
2.33949 
3.76406 
2.27046 
3.69973 
2.38093 
2.42246 
3.74085 
2.37808 
2.37763 
3.72945 
3.73802 
2.35374 
3.74241 
2.36922 
3.75097 
2.27956 
3.60841 
2.36876 
3.75622 
3.67875 
2.36332 
2.32044 
2.34946 
3.68992 
2.33593 
3.69192 
2.34636 
3.76238 
2.36439 
3.6198 
2.35024 
3.67755 
2.37058 
3.73194 
2.53135 
3.76099 
3.57921 
2.3102 
3.59681 
2.37437 
3.66533 
3.66694 
2.33105 
3.65461 
2.37795 
3.76712 
2.3657 
2.3685 
3.65758 
2.35293 
3.71266 
3.6777 
2.31729 
2.33126 
3.74026 
2.34893 
3.6692 
2.30789 
3.65019 
2.3661 
2.48077 
3.75532 
2.43701 
3.76586 
2.38676 
2.40016 
2.30784 
3.58735 
3.75882 
2.39955 
2.39952 
2.30114 
3.70645 
2.34236 
3.68399 
2.3379 
2.34551 
2.32006 
2.36753 
2.38877 
2.48185 
2.4201 
3.74379 
2.36816 
3.75563 
2.35084 
2.43262 
2.31 
3.73309 
2.3692 
2.32685 
3.69818 
3.65792 
2.2884 
3.65471 
2.34837 
3.72064 
3.725 
2.34599 
3.71364 
3.7702 
2.3593 
3.76016 
2.38629 
2.43052 
3.73995 
3.73119 
2.3475 
3.70216 
2.30672 
2.39492 
3.73944 
2.35934 
2.34461 
3.74193 
2.32956 
2.34733 
3.67213 
2.34616 
2.35744 
2.3203 
3.73932 
2.37034 
2.43257 
2.27644 
3.64784 
2.32985 
2.36841 
2.36292 
3.76472 
2.31571 
3.7383 
2.39375 
2.3473 
2.35363 
3.63855 
2.38124 
3.76584 
2.48709 
3.76366 
3.76769 
2.37416 
2.33046 
3.74887 
2.40993 
3.73414 
2.29075 
3.75589 
3.69773 
2.26934 
2.30305 
3.73669 
3.72503 
2.26755 
3.73361 
3.67616 
3.64109 
2.36904 
3.66347 
2.35057 
3.66505 
2.29714 
3.76474 
3.59304 
2.37042 
2.34133 
3.74873 
3.76515 
2.33503 
2.30249 
2.35858 
3.71419 
3.65941 
2.41092 
3.69863 
2.40945 
2.34906 
3.75691 
2.47101 
2.26883 
3.56452 
2.37341 
3.68189 
2.30075 
2.36726 
3.65789 
3.69249 
2.31669 
3.60046 
2.32577 
3.73935 
2.28714 
2.39661 
2.37661 
3.71509 
2.38804 
2.34251 
3.73087 
2.39687 
3.624 
3.726 
2.37407 
2.46839 
3.64314 
2.3842 
2.28914 
3.7002 
2.29899 
3.64781 
2.38519 
2.29571 
3.71288 
2.32794 
2.34913 
2.27173 
3.7289 
2.34282 
2.40836 
3.69109 
3.72122 
2.36357 
3.72626 
2.33138 
3.65381 
2.34992 
2.37296 
3.65885 
3.6995 
2.32287 
2.37259 
2.32486 
3.76316 
2.39433 
2.43762 
2.28072 
3.74421 
3.76173 
2.45934 
2.38236 
3.61755 
2.35198 
3.71601 
3.67972 
2.42821 
3.77047 
3.73019 
2.32761 
2.35318 
3.72433 
3.7095 
3.74066 
2.30418 
3.66521 
2.35575 
2.38356 
2.38798 
3.75105 
3.74857 
2.35487 
3.695 
2.35613 
2.26666 
3.71909 
3.71049 
2.4445 
2.36726 
2.27425 
3.66414 
3.71891 
3.77044 
3.72839 
2.28917 
2.35225 
2.37651 
2.30499 
3.70316 
3.74462 
3.7071 
2.35982 
2.3274 
3.73935 
3.73232 
3.761 
3.719 
2.37572 
3.61717 
2.33835 
2.33117 
2.40241 
2.33718 
2.36204 
3.70006 
2.3697 
3.6628 
2.32984 
3.66317 
2.37967 
3.65968 
2.35005 
3.71503 
3.53896 
2.36501 
2.29037 
2.31468 
3.71894 
2.443 
3.76465 
2.32892 
2.35241 
3.7209 
3.77037 
3.72868 
2.38359 
3.71974 
2.34796 
2.36417 
2.41227 
3.67602 
3.72065 
2.28281 
3.75404 
2.26889 
3.72241 
2.40266 
2.4162 
2.48632 
2.39802 
3.75603 
2.42222 
2.34902 
2.36926 
2.33459 
3.71866 
3.75761 
3.67965 
2.33953 
2.35714 
3.76878 
3.72275 
3.68991 
2.37349 
3.70362 
2.30623 
3.67612 
2.38461 
2.41916 
2.38576 
3.72005 
2.34039 
2.40204 
3.72997 
2.40577 
2.38282 
3.72505 
3.6222 
2.31846 
2.27174 
2.27243 
2.36466 
3.68865 
2.38709 
3.76879 
2.34954 
2.38129 
3.67451 
2.50315 
2.37888 
2.37382 
2.30709 
2.31859 
2.32087 
3.73466 
3.75576 
2.3191 
2.33124 
3.67902 
3.72691 
2.28199 
3.76021 
2.32652 
3.76529 
2.34548 
2.31609 
3.57781 
2.36236 
3.72336 
2.41604 
2.34392 
2.42645 
3.67619 
2.35045 
3.67709 
2.33245 
2.32908 
2.34737 
2.3931 
2.36276 
2.38147 
2.35686 
2.38828 
3.68683 
2.3326 
2.33357 
3.70148 
2.31535 
3.71222 
3.6439 
2.30393 
3.66987 
2.3418 
3.74423 
2.35898 
3.72247 
2.3557 
3.74727 
3.75622 
2.35291 
3.70064 
2.28837 
2.32026 
3.70996 
2.38803 
2.48228 
3.67836 
2.35378 
2.39563 
2.44057 
2.39306 
2.28925 
3.67123 
2.29997 
2.29395 
2.37583 
2.38056 
3.63612 
2.349 
3.74601 
2.35385 
2.35044 
2.3418 
2.31965 
3.57042 
2.36458 
2.3483 
2.29262 
3.54467 
2.32199 
3.72314 
2.40272 
3.72294 
2.34468 
2.35406 
2.3632 
3.61066 
2.43263 
3.61668 
2.38401 
2.40429 
2.28073 
3.74923 
3.68143 
3.67411 
3.7273 
2.27421 
3.68464 
2.35902 
2.26968 
2.3894 
3.7289 
2.47474 
2.39776 
2.41882 
2.3671 
3.69428 
2.37844 
2.35865 
3.75275 
2.382 
3.70545 
2.42574 
2.37313 
3.74573 
3.75866 
2.31964 
2.33414 
2.31915 
3.75376 
3.52337 
3.76194 
2.4098 
3.53331 
3.64239 
2.38917 
2.37569 
2.30634 
3.76805 
2.34411 
3.66665 
2.36388 
2.42036 
2.37822 
3.63838 
3.48221 
3.74426 
3.68978 
2.38088 
2.36253 
3.75603 
2.32004 
2.48938 
3.69322 
2.50519 
2.4654 
2.40996 
2.40346 
2.34671 
2.36528 
2.32772 
2.37263 
3.75342 
3.75783 
2.31261 
3.56016 
2.34331 
3.76582 
2.32338 
3.70199 
2.29408 
2.36392 
3.75438 
3.63904 
2.34947 
2.30837 
2.3466 
2.31822 
3.67482 
2.37052 
2.36281 
2.34138 
3.70542 
3.74338 
3.68092 
3.66807 
3.76158 
2.3369 
3.64427 
2.28671 
3.696 
2.28274 
3.71211 
2.31076 
3.71391 
3.73551 
3.6404 
2.32055 
3.75741 
2.31775 
3.73408 
2.28735 
3.6209 
2.31859 
3.7683 
2.38778 
3.7201 
2.28577 
3.65901 
2.36065 
2.32327 
2.40745 
2.36817 
2.34592 
3.72772 
2.39787 
3.64944 
3.74186 
2.3774 
3.70338 
2.34805 
2.29434 
2.37164 
3.69958 
3.71829 
2.2992 
3.74468 
2.3384 
3.72859 
2.36854 
3.71634 
2.46567 
2.44319 
2.45414 
2.50483 
2.39509 
2.32599 
2.34102 
2.35935 
2.28016 
3.68846 
3.728 
3.65552 
3.73374 
2.32162 
3.73333 
3.59092 
2.33509 
2.27551 
2.39827 
3.72509 
3.74509 
2.41783 
2.34549 
2.36547 
2.3038 
3.6781 
3.64712 
3.74246 
2.30321 
3.54714 
2.33099 
2.38811 
3.74906 
2.31178 
3.71849 
3.67912 
3.7644 
3.71342 
2.32786 
3.64334 
2.30183 
2.32876 
3.75808 
2.37318 
3.6598 
2.3498 
2.40523 
2.37714 
2.42488 
3.57437 
2.43941 
3.68345 
2.35867 
3.66248 
2.39981 
2.38393 
3.72505 
2.38803 
3.74227 
2.36092 
2.3696 
2.34387 
3.75939 
2.32246 
3.75097 
2.35172 
2.38795 
3.69933 
2.33757 
3.62185 
3.72793 
3.64674 
3.59663 
3.6938 
2.35161 
3.71024 
3.74635 
2.31411 
2.3149 
3.69384 
2.31303 
2.38488 
3.61773 
3.64163 
2.31828 
2.33214 
2.44932 
3.69875 
2.39673 
2.38931 
2.43235 
3.76132 
2.29461 
3.6615 
2.36926 
3.72607 
3.68885 
2.30865 
2.32457 
2.30198 
2.29982 
3.72704 
3.76736 
2.32878 
2.30938 
2.35935 
3.66968 
3.76054 
2.35583 
3.70673 
3.66928 
2.36078 
3.66493 
2.36501 
2.37455 
3.58944 
3.70441 
3.61947 
2.36966 
2.35484 
2.4162 
2.40071 
3.73724 
3.74112 
3.73563 
2.32328 
3.68405 
2.33613 
3.6366 
2.33156 
2.39777 
3.75996 
3.70158 
3.74621 
2.37272 
2.3854 
2.35929 
2.33801 
3.67371 
3.74205 
2.4009 
2.37558 
2.39238 
2.33155 
3.75322 
3.72249 
2.32153 
2.3665 
2.32376 
2.41437 
2.32385 
3.76518 
2.36236 
3.76412 
2.3753 
2.36022 
3.74322 
3.76643 
3.7465 
3.76346 
2.35895 
3.72731 
3.57319 
2.32627 
2.35288 
2.43926 
3.75551 
3.7156 
3.60197 
3.72135 
2.48333 
2.39135 
2.3454 
3.64913 
2.38082 
3.7654 
3.70446 
2.36772 
3.74521 
2.3318 
3.59392 
2.359 
3.69159 
2.2607 
3.64622 
3.55284 
3.70155 
2.30682 
2.32893 
2.31626 
2.32673 
3.73071 
3.7492 
2.32393 
3.66567 
2.32575 
2.36087 
2.38081 
2.40803 
3.7699 
2.44487 
2.46081 
2.419 
2.40436 
2.45268 
2.40358 
2.35091 
3.72084 
2.33553 
3.7353 
2.32817 
3.73683 
2.38998 
3.7159 
2.30375 
3.72025 
3.75907 
2.37267 
2.30023 
3.56282 
2.35041 
2.35044 
3.72732 
2.38523 
3.71773 
2.39548 
2.46244 
2.42061 
3.65096 
3.73153 
3.64887 
3.49251 
2.34061 
3.58783 
2.35765 
2.27861 
2.34187 
3.53776 
3.693 
2.29734 
3.6176 
3.63102 
3.66733 
2.30983 
3.70193 
2.31172 
3.76533 
2.51046 
3.73369 
3.55549 
2.34119 
3.68784 
3.71233 
2.37443 
3.76204 
2.40113 
2.37278 
3.58203 
2.4091 
2.41968 
2.38308 
2.38007 
2.4131 
3.76816 
2.35251 
2.42097 
2.36549 
3.71564 
2.33526 
3.76817 
2.36452 
3.54809 
2.40455 
2.32861 
3.70438 
3.75134 
3.76626 
2.30906 
3.72461 
3.75181 
2.35271 
2.44811 
2.34284 
2.29502 
2.32488 
3.75139 
2.43682 
2.38558 
3.71498 
2.38864 
3.75618 
2.47516 
2.39917 
2.35261 
3.69551 
2.37756 
3.75239 
2.35691 
3.68472 
2.38839 
2.34603 
3.76412 
2.39502 
3.75931 
2.29051 
3.63006 
2.39009 
2.33066 
2.29172 
3.59143 
2.41171 
2.39053 
2.37035 
3.73131 
3.69518 
2.37386 
2.33008 
3.72181 
2.39223 
2.34454 
2.36284 
3.64309 
2.34569 
2.32261 
2.37338 
3.57863 
3.74604 
2.38757 
3.73541 
2.36235 
2.36974 
2.35988 
2.35425 
3.59249 
2.3598 
2.34192 
2.29694 
3.69935 
3.62744 
3.74406 
2.27861 
3.76858 
3.60331 
2.30631 
3.74495 
2.33385 
2.37125 
3.63328 
2.37887 
3.69336 
3.64449 
2.36824 
3.65224 
2.36171 
3.63935 
2.34039 
2.33037 
2.35093 
2.35818 
2.40181 
2.39647 
3.56836 
2.29588 
2.36538 
2.35668 
3.57978 
3.67494 
2.32053 
3.70317 
2.35204 
2.28865 
3.72847 
2.38811 
3.74623 
2.41621 
3.72561 
3.67981 
3.74364 
2.42423 
2.34073 
2.35505 
3.7589 
3.67618 
3.74698 
2.37937 
3.67364 
2.35034 
3.76707 
2.39058 
3.76468 
2.34784 
3.72524 
2.40591 
3.76906 
3.76983 
2.45222 
2.40947 
2.3477 
3.75079 
2.29366 
2.33614 
3.70953 
2.3461 
3.68245 
2.28651 
3.76138 
3.70344 
3.76739 
3.72362 
2.30543 
3.72416 
3.68944 
2.29596 
2.24678 
3.71912 
2.3017 
2.33867 
2.38809 
2.37291 
2.36056 
3.702 
2.32503 
3.75966 
3.67784 
2.35065 
2.38025 
3.68654 
2.38171 
2.27822 
3.76938 
3.75308 
2.38016 
3.59118 
2.34286 
3.63068 
3.67074 
3.76719 
3.64445 
2.33971 
2.40229 
3.62419 
3.75166 
3.74515 
2.30584 
2.3702 
3.75669 
2.37887 
3.57508 
3.76556 
2.40598 
3.74274 
3.75836 
2.3143 
3.63533 
3.53757 
2.4215 
3.68509 
2.32283 
2.38582 
3.75936 
3.73359 
2.31183 
3.69426 
2.34845 
3.75441 
3.7103 
2.31994 
3.70731 
3.74759 
2.35126 
2.33552 
3.74306 
2.32969 
3.70266 
3.7482 
2.30894 
3.73809 
2.44983 
2.34904 
2.3106 
2.39955 
2.38016 
3.75504 
3.72515 
3.75409 
2.39337 
3.5624 
2.39276 
2.3735 
2.4384 
3.72672 
2.35921 
2.35587 
3.72771 
2.37103 
2.42114 
3.72916 
2.2921 
3.65738 
3.65576 
2.36293 
3.73938 
3.64144 
2.33503 
2.38981 
2.3392 
2.39416 
3.63515 
2.3554 
2.32056 
3.75104 
2.35669 
2.32784 
3.68342 
3.5667 
2.3363 
2.35664 
3.67312 
3.73887 
2.32414 
2.32212 
2.29384 
2.33687 
3.70857 
2.32265 
2.41448 
3.6753 
3.68553 
3.6142 
2.37723 
2.42163 
2.35025 
2.3357 
3.71511 
2.30746 
3.76153 
2.39026 
3.76276 
3.63877 
3.70344 
3.75333 
2.32487 
3.7684 
2.33241 
2.3357 
2.32464 
3.72153 
3.72028 
3.73561 
2.3886 
2.34175 
2.46379 
2.51846 
3.73211 
2.38417 
3.73434 
2.40269 
3.66047 
2.28991 
3.74297 
3.72076 
2.35443 
2.35295 
3.77 
2.32307 
2.30933 
2.28992 
3.69017 
3.75025 
3.70675 
2.33743 
2.36905 
2.38189 
3.68031 
2.37374 
2.3774 
2.32242 
2.34422 
2.35058 
2.32295 
3.72996 
2.43634 
3.69736 
2.33443 
2.37118 
3.71142 
2.33873 
3.76745 
2.33631 
3.63359 
3.71602 
2.31754 
2.3832 
3.74466 
3.7243 
3.59829 
2.30708 
2.35244 
3.74849 
2.3478 
2.38179 
3.7493 
3.66735 
2.3668 
3.66653 
2.28301 
2.32667 
3.72761 
2.36967 
2.3387 
2.31165 
2.34214 
2.35536 
3.65054 
3.68127 
2.35345 
3.65802 
2.35682 
2.36264 
2.43545 
3.74048 
2.34907 
3.71554 
2.30755 
2.34138 
3.62241 
3.68 
2.34778 
3.56225 
3.71036 
2.32817 
2.28544 
2.33786 
3.73859 
3.75229 
2.3444 
3.76963 
3.76156 
2.31319 
3.71101 
2.31974 
2.33206 
3.65402 
2.32542 
3.67163 
2.39599 
3.75934 
2.36126 
3.73375 
2.35092 
2.32976 
2.32876 
3.6936 
3.68691 
2.36074 
2.38871 
3.75887 
2.4495 
2.29152 
3.75796 
3.71191 
2.33149 
2.33508 
2.30447 
3.7153 
2.38246 
3.656 
3.75417 
2.32842 
2.36647 
3.7707 
3.60973 
3.76829 
2.3248 
3.60796 
3.77013 
2.3144 
2.36185 
2.34291 
2.37621 
3.67981 
2.3943 
3.75228 
3.72384 
2.45112 
2.41421 
3.73615 
2.31539 
2.34392 
3.74751 
2.4193 
2.30967 
3.7157 
2.34633 
3.74948 
2.35103 
3.73971 
2.37397 
3.68396 
2.31067 
3.71015 
3.74739 
3.6532 
2.40623 
3.75674 
3.72117 
2.43724 
3.68538 
2.45845 
2.38399 
3.73995 
2.45037 
2.37484 
3.69497 
2.30955 
3.73037 
2.28662 
3.73615 
2.42407 
3.72537 
3.75905 
2.33218 
2.37373 
2.36545 
3.71059 
2.36537 
3.69211 
3.75985 
3.72374 
2.42592 
3.69299 
2.39903 
3.75817 
2.37783 
2.35965 
2.41025 
2.38862 
3.75417 
2.37157 
2.36661 
2.4182 
3.63268 
2.33186 
2.35724 
2.47138 
3.76167 
3.77101 
2.37484 
3.75501 
2.41037 
2.37516 
2.46464 
3.75752 
2.41694 
2.33477 
3.6877 
2.36556 
3.74129 
3.70704 
3.66664 
2.33134 
3.75854 
2.3501 
3.71017 
2.35716 
3.76935 
2.39328 
2.38732 
3.75279 
3.65994 
2.399 
2.37637 
2.35033 
3.73621 
2.43358 
3.70552 
3.70665 
2.31313 
3.73708 
2.28208 
3.67608 
2.37717 
3.73849 
2.34378 
2.39911 
3.63155 
3.68202 
2.37721 
3.71764 
3.75342 
2.29441 
3.60312 
3.72772 
2.31362 
2.27646 
3.64094 
2.36065 
3.67113 
2.37388 
2.3937 
3.69063 
3.77096 
3.72353 
2.32293 
3.7526 
2.38993 
3.72937 
2.39492 
2.38046 
3.64179 
3.76841 
3.72693 
2.42662 
3.59324 
2.37722 
2.30889 
2.3437 
3.76507 
2.37797 
2.3795 
2.33481 
3.75676 
3.75743 
2.32169 
3.65923 
2.30613 
3.66288 
3.68157 
2.36914 
3.74593 
2.46275 
2.39667 
3.76525 
3.71239 
2.37517 
2.37311 
2.38335 
3.55759 
2.40799 
3.59196 
3.70606 
2.28714 
2.30134 
2.34204 
3.70381 
2.3792 
3.70938 
2.34356 
2.34286 
3.71402 
3.73503 
2.39138 
2.36856 
2.37751 
3.76263 
2.32216 
3.58257 
2.32519 
2.2788 
3.66727 
3.74893 
3.64968 
3.74858 
2.32416 
3.73938 
2.3638 
3.70874 
3.5838 
2.42345 
2.37958 
3.67908 
3.64856 
2.33845 
2.37453 
3.70659 
2.32217 
3.64499 
2.31285 
2.33041 
3.71586 
2.41711 
3.73657 
2.33662 
2.36096 
2.35011 
2.30159 