ITEM: TIMESTEP
20
ITEM: NUMBER OF ENTRIES
112244
ITEM: BOX BOUNDS pp pp pp
0 108.62
0 108.62
0 54.31
ITEM: ENTRIES c_pairDist 
2.36054 
2.45341 
3.75843 
3.70355 
2.51329 
3.6472 
3.71051 
2.29169 
3.74057 
2.2779 
2.3858 
2.35896 
3.72014 
2.24754 
3.69937 
2.44926 
2.38231 
2.33387 
2.43015 
3.74089 
3.76228 
3.667 
2.3267 
2.41589 
2.4311 
2.41647 
2.3536 
3.67876 
3.76007 
3.75175 
2.32273 
3.75347 
3.69107 
2.33142 
3.75015 
2.24541 
3.68286 
2.4519 
2.39068 
3.75895 
3.74243 
2.41673 
3.76854 
2.44557 
2.25732 
2.32529 
2.34129 
3.72732 
3.74656 
3.73028 
3.76708 
2.32729 
3.68587 
2.25783 
3.73979 
2.43785 
2.31578 
2.45756 
2.33472 
3.75592 
2.38082 
2.53422 
2.28379 
2.43546 
3.74274 
3.65439 
3.76077 
3.72568 
2.32227 
3.66345 
2.32876 
2.33097 
2.57089 
2.42324 
3.73809 
2.4224 
3.76516 
3.76309 
2.40225 
2.29669 
3.64003 
2.29303 
2.46817 
3.6795 
3.67245 
2.34669 
3.66444 
2.24028 
3.5495 
2.2947 
2.48254 
2.49147 
2.39026 
2.4731 
2.2725 
3.68389 
2.50577 
2.34488 
3.6792 
3.59523 
2.21162 
3.77056 
2.28051 
3.74349 
2.33602 
3.72759 
2.35707 
2.45657 
3.70843 
3.76678 
2.28483 
3.72096 
3.65506 
2.30351 
3.74005 
2.31449 
2.28136 
2.27931 
3.72858 
3.76668 
2.35934 
2.41358 
2.34089 
2.40953 
2.44467 
3.74396 
2.33082 
3.73043 
3.6733 
2.28357 
3.62449 
2.49355 
2.31069 
2.25443 
3.69651 
3.7332 
2.25886 
2.33145 
2.39954 
2.25413 
2.21791 
3.73196 
2.3171 
2.37311 
2.28978 
2.26661 
2.40892 
3.69542 
3.69997 
3.74855 
2.396 
3.71357 
2.38734 
3.68928 
2.39726 
2.38102 
2.2776 
3.68701 
3.73072 
3.75487 
3.70448 
3.72605 
2.2841 
3.68693 
3.67079 
2.43552 
2.23774 
3.75832 
2.22801 
2.50608 
3.75207 
2.34721 
2.39203 
3.74447 
2.34283 
3.75555 
2.3627 
2.27575 
2.38971 
2.39652 
2.33419 
3.76446 
2.42628 
3.58574 
2.31618 
2.18321 
2.25223 
3.59029 
3.76282 
3.75809 
2.31731 
2.25407 
2.49367 
2.34043 
3.66511 
2.30145 
3.71782 
3.68596 
2.42912 
2.43745 
2.45485 
3.75067 
2.26029 
3.75101 
2.24846 
3.70155 
2.22375 
2.33764 
3.75337 
3.66184 
2.31048 
2.34731 
2.39187 
2.1837 
3.72307 
3.68097 
2.29744 
2.30863 
2.49385 
2.22413 
3.63731 
3.64041 
3.65525 
2.33027 
3.73953 
2.23714 
2.34952 
2.26831 
3.77111 
3.71577 
3.70689 
2.33133 
3.76127 
2.39173 
2.36703 
2.2388 
3.71543 
2.40024 
3.71698 
2.2708 
2.32345 
2.27292 
3.74515 
3.74607 
3.76192 
2.37785 
2.46455 
2.29425 
2.31967 
3.70899 
2.31086 
2.4828 
2.45326 
2.48173 
3.73084 
2.3668 
3.66075 
2.31105 
3.75175 
2.4719 
2.34629 
3.75668 
3.76963 
2.39203 
3.72323 
3.73078 
2.27503 
3.75815 
2.4922 
2.37986 
3.74653 
2.40681 
2.498 
2.37113 
3.72789 
2.3795 
3.67947 
3.70601 
3.73914 
2.39234 
3.73289 
2.43919 
2.34876 
2.29451 
3.74077 
3.76032 
3.72167 
3.76458 
2.3634 
3.69069 
2.37574 
2.22834 
2.31694 
3.7307 
3.63987 
2.25379 
3.76512 
3.74922 
2.27518 
2.3156 
2.44011 
3.7551 
2.36952 
3.72908 
3.62524 
2.31918 
2.26086 
2.26982 
3.6888 
3.60435 
3.66535 
3.69312 
2.38214 
3.74838 
2.33187 
3.72144 
2.29168 
2.22604 
3.713 
3.75623 
2.41552 
2.51075 
2.48794 
2.44324 
2.43275 
3.6247 
2.3194 
3.68874 
2.45084 
2.22899 
3.73693 
3.68405 
3.7405 
2.24519 
2.26731 
2.40738 
2.34541 
3.65439 
2.28398 
2.29237 
2.46853 
2.46045 
3.6745 
2.28721 
2.42633 
2.35285 
2.37319 
3.73658 
3.63652 
3.73273 
2.42239 
3.7314 
2.30603 
2.34553 
3.70335 
2.41033 
3.75726 
3.77055 
2.26637 
2.39101 
2.39992 
2.29891 
3.76544 
3.67721 
2.31485 
3.75775 
2.31576 
2.32078 
2.33771 
3.69965 
3.77035 
3.71168 
2.42931 
3.60943 
3.70552 
2.36411 
2.30973 
2.41334 
3.66446 
2.43483 
3.76405 
2.2826 
2.34037 
3.74032 
2.39715 
3.73368 
3.74829 
2.22309 
2.33573 
2.42208 
2.42263 
3.67397 
3.74601 
3.67076 
2.40301 
3.74487 
2.18819 
2.36171 
2.38474 
3.76649 
3.65814 
2.31858 
3.68428 
2.31276 
2.27174 
3.71218 
2.21056 
3.69979 
3.71596 
2.28266 
2.3854 
2.27477 
3.74704 
2.32996 
3.75122 
2.43242 
3.71787 
3.64609 
2.29651 
2.34836 
2.19935 
3.69971 
2.39597 
3.73576 
2.3371 
2.41419 
2.34387 
3.65497 
3.7378 
2.26853 
2.41356 
2.4943 
2.33052 
3.7071 
3.65354 
3.73692 
2.29985 
2.41999 
2.40645 
2.29467 
3.65805 
3.66374 
2.44608 
3.74132 
3.72763 
2.46577 
2.25501 
2.42697 
3.75075 
3.73671 
2.26218 
2.48385 
2.36491 
3.76469 
2.23242 
3.75631 
3.66122 
2.35806 
3.66179 
2.35183 
2.35869 
2.21965 
3.77015 
3.70569 
2.38215 
2.32113 
2.32251 
2.49557 
3.67138 
3.71434 
2.23684 
3.74935 
2.30881 
3.70364 
2.3197 
2.31195 
3.72361 
3.66943 
2.38369 
3.74501 
2.49043 
2.41965 
2.36666 
3.74801 
3.76586 
3.69367 
2.30849 
3.68617 
2.2045 
3.71378 
2.27141 
2.27429 
2.49794 
3.77099 
3.76816 
2.35797 
2.4371 
2.30381 
3.66095 
3.69012 
2.2798 
2.41924 
3.76184 
2.40007 
2.31033 
3.5512 
3.70381 
2.45939 
3.69973 
2.28324 
2.31875 
2.38922 
3.73675 
3.75181 
2.29367 
3.66614 
2.44193 
2.31768 
2.3535 
3.71433 
2.35398 
3.65676 
2.37073 
2.30763 
3.67936 
2.31507 
3.70548 
3.6975 
3.51509 
3.57757 
2.27765 
3.7212 
2.32865 
2.34554 
2.27536 
3.66957 
3.76861 
3.69925 
2.26073 
3.74348 
2.23309 
3.76051 
2.42237 
2.36935 
3.76952 
2.32683 
3.75003 
3.74075 
2.47502 
2.31478 
2.38901 
3.69746 
2.36765 
3.67365 
3.75451 
3.74434 
2.34447 
2.18748 
3.68471 
2.37248 
3.7267 
3.65839 
3.76996 
2.44194 
3.7363 
3.66134 
2.40997 
2.30814 
3.67039 
2.27671 
3.69741 
2.38464 
3.71359 
2.31226 
2.36081 
2.42737 
3.7182 
2.23774 
2.37317 
3.66048 
2.2356 
2.47658 
2.38259 
3.56465 
2.21984 
2.39699 
2.37827 
3.74259 
3.76739 
2.42275 
3.56902 
2.4305 
2.34605 
2.36927 
3.73757 
3.57296 
3.73231 
2.37386 
2.33049 
3.71041 
2.22177 
2.41096 
3.65309 
2.41704 
3.74454 
2.31751 
3.74525 
2.41108 
3.74971 
2.34508 
2.38959 
3.73607 
3.7301 
3.69094 
2.27045 
3.69431 
3.68726 
3.64603 
2.335 
3.76792 
2.33014 
3.66591 
2.45105 
3.76429 
3.71177 
3.64451 
2.24841 
3.76077 
3.63852 
2.35729 
3.57969 
3.6542 
2.42841 
3.73376 
2.41246 
3.69378 
2.38402 
2.31313 
3.75708 
2.28127 
3.71917 
2.476 
3.69659 
2.32681 
3.72796 
2.29158 
2.33518 
3.75571 
2.50614 
3.76812 
2.33279 
3.69877 
2.30088 
3.74447 
2.18846 
3.72163 
2.37939 
2.3353 
2.43616 
3.68357 
3.65857 
2.32935 
2.45569 
3.73041 
3.69769 
2.32252 
2.30644 
2.28293 
2.18487 
3.64618 
3.53571 
2.4125 
2.4378 
3.73036 
2.41817 
2.47966 
2.50872 
2.30417 
2.27887 
2.28059 
2.33793 
2.37128 
3.58057 
2.33638 
2.33603 
3.62708 
2.25166 
2.25867 
3.6653 
2.3066 
2.31631 
3.71058 
3.7129 
2.43115 
2.40239 
3.75758 
2.38991 
2.23323 
2.51632 
3.68833 
3.77013 
2.32147 
3.71266 
2.35288 
3.68848 
2.30266 
2.46276 
3.70826 
3.68993 
2.46144 
2.38082 
2.37497 
3.72279 
3.74485 
3.71345 
2.47029 
2.41474 
2.33975 
2.25065 
3.74083 
2.48177 
3.66712 
2.30181 
2.4002 
3.76633 
3.76557 
2.43486 
2.3584 
2.30982 
3.72584 
2.37279 
3.72972 
2.40945 
2.28778 
3.61975 
2.40919 
3.71617 
2.26802 
3.75494 
2.24232 
3.75126 
3.67928 
2.40385 
2.423 
2.2681 
2.31784 
3.70559 
3.68297 
2.30992 
3.76037 
2.50157 
3.73536 
2.47963 
3.59682 
2.3779 
2.42446 
3.76321 
2.3509 
2.29358 
3.68259 
3.77089 
2.24162 
2.44034 
2.33664 
3.73346 
2.37512 
3.6996 
2.39489 
3.75442 
3.64293 
3.76462 
2.27765 
2.37178 
2.36905 
3.74665 
2.45925 
3.70639 
2.2743 
2.47101 
3.72828 
2.4193 
3.67915 
2.37055 
2.38089 
2.58327 
3.70307 
2.31938 
3.74666 
2.44641 
2.3571 
3.76021 
2.3946 
2.26171 
3.7024 
2.27489 
3.65907 
3.72385 
2.40441 
3.75794 
2.43472 
3.7164 
2.30457 
2.40561 
2.40433 
2.32992 
3.72497 
2.38232 
3.56215 
2.28767 
3.70699 
3.66639 
2.4797 
2.47836 
3.76914 
2.3653 
3.76353 
2.28475 
3.73137 
3.71534 
2.41104 
3.7688 
3.74787 
2.32802 
2.24549 
3.7075 
3.71454 
2.31754 
2.28322 
2.37863 
2.375 
3.71746 
2.26882 
3.71186 
3.73731 
3.75715 
3.64865 
2.34402 
2.30106 
3.74674 
2.37774 
3.7436 
2.39257 
3.77085 
3.61947 
2.22955 
2.30699 
2.41268 
2.37454 
3.73682 
2.41934 
2.30176 
3.73608 
2.35724 
3.74745 
2.40832 
2.30935 
3.72674 
3.72562 
3.72204 
2.33982 
2.32817 
3.67876 
3.74301 
2.22971 
3.70562 
3.67912 
2.40417 
2.42905 
2.41449 
3.62886 
2.32084 
3.69825 
3.67842 
2.3511 
2.35469 
2.32985 
3.75961 
3.67069 
3.72389 
2.32518 
3.65377 
3.72376 
2.34893 
2.46674 
3.54291 
2.24556 
3.76285 
2.43496 
2.3293 
3.73316 
3.73931 
2.37807 
2.34104 
2.35474 
3.75561 
2.37421 
3.7479 
2.26754 
2.34045 
3.7284 
2.23622 
3.67552 
2.33035 
2.35048 
2.37942 
2.39552 
2.33578 
3.73879 
2.42369 
3.73778 
2.2806 
2.35518 
3.7505 
2.28904 
3.58912 
2.421 
2.34222 
3.61507 
2.19528 
3.69156 
3.66647 
3.75144 
2.34332 
2.259 
3.75769 
3.60795 
2.27826 
2.38174 
3.71723 
2.34483 
2.26568 
3.67757 
2.37161 
3.61771 
2.30222 
2.33959 
3.64575 
2.27565 
2.51186 
2.19841 
3.75143 
3.63112 
3.71515 
3.76645 
2.31623 
3.69293 
2.28101 
2.32558 
2.33739 
3.76207 
3.59164 
2.28835 
2.34807 
2.33606 
3.67034 
3.76798 
2.37571 
2.1808 
2.29323 
3.76674 
3.7074 
3.61412 
3.67344 
3.70613 
2.3803 
3.74348 
2.40105 
2.35573 
2.42477 
2.44087 
2.34502 
3.63941 
3.66043 
2.44594 
2.42375 
2.14683 
2.30193 
3.75233 
3.64637 
3.63103 
3.73636 
2.36823 
2.25815 
2.3619 
3.74755 
2.19726 
3.62759 
2.35187 
3.57711 
2.4401 
3.71701 
3.7604 
2.49973 
2.43321 
2.47144 
2.50966 
2.38267 
2.23446 
3.69861 
3.63208 
3.68618 
3.7288 
2.31806 
3.75615 
2.42111 
3.7339 
3.70617 
2.21556 
2.34116 
3.53352 
3.70587 
2.36264 
2.32463 
2.2302 
3.65777 
2.39789 
2.42769 
2.41171 
2.31187 
2.27187 
2.34068 
3.65197 
2.32346 
3.71223 
3.71781 
2.47469 
2.38717 
3.75325 
2.28711 
3.722 
2.35183 
3.76768 
2.40042 
2.36647 
3.66928 
3.70999 
3.75494 
2.59737 
2.35654 
2.29478 
3.70977 
3.76863 
2.54024 
2.20429 
2.23705 
3.65508 
3.69066 
3.75647 
3.7501 
2.22977 
3.75879 
3.70249 
2.32771 
2.47146 
2.33938 
3.66102 
2.5762 
2.41413 
3.76938 
2.2609 
3.61432 
2.31238 
3.74905 
2.30279 
2.44649 
3.67691 
3.68731 
3.74411 
2.29659 
2.22059 
2.38051 
2.33903 
2.43088 
2.33895 
3.75854 
2.32937 
2.37687 
3.74599 
2.39189 
2.36776 
2.31247 
2.37395 
3.65217 
2.29521 
3.73596 
2.37257 
2.3871 
2.28507 
2.30708 
3.75668 
2.28733 
3.73315 
2.34562 
2.46161 
3.73238 
2.31219 
3.72341 
2.43695 
3.6832 
2.27403 
2.40044 
2.46044 
2.36957 
2.44588 
3.75739 
2.29436 
3.66347 
2.30559 
2.29056 
3.70627 
2.28426 
3.77088 
3.74853 
2.32227 
3.62704 
2.47461 
3.72106 
2.26811 
3.71625 
2.2878 
3.7649 
2.42756 
2.46144 
3.67073 
2.28801 
2.44839 
2.47748 
2.44699 
2.34085 
3.71539 
2.30155 
2.44258 
3.72694 
2.50957 
2.29952 
3.74621 
2.31518 
3.76668 
3.74693 
2.35367 
3.74696 
2.30198 
3.68688 
2.2722 
2.28544 
3.73686 
2.27868 
3.66037 
2.38391 
2.45409 
3.77059 
3.61579 
2.31553 
3.73391 
3.70506 
2.34307 
2.4222 
3.62772 
2.26526 
3.71781 
2.29805 
3.61573 
2.43388 
2.26905 
2.437 
2.4055 
3.71643 
2.29455 
2.47176 
2.39083 
2.42424 
3.60728 
2.33393 
2.42576 
2.24155 
3.70043 
2.34095 
3.64546 
3.74671 
3.70974 
2.31079 
3.67441 
2.38242 
2.28784 
2.40947 
2.32509 
3.71342 
2.21032 
2.4253 
2.47161 
3.71826 
2.5081 
3.71246 
3.71156 
2.32318 
2.34895 
2.50112 
3.73386 
2.37782 
3.66844 
2.40772 
2.35861 
2.36079 
3.69488 
3.72834 
2.42845 
3.71383 
3.75947 
2.23498 
2.35172 
2.25992 
3.75011 
2.36953 
2.47178 
2.37324 
2.39149 
3.76626 
3.7561 
2.35132 
3.71666 
2.2667 
2.39375 
2.34989 
3.76466 
2.30441 
3.637 
3.76736 
2.29685 
2.35901 
3.75593 
2.40253 
3.69854 
3.6787 
2.30207 
3.75478 
2.3581 
2.28886 
3.60865 
2.28568 
3.71525 
3.76968 
3.76584 
2.54779 
3.64046 
2.29845 
2.34352 
2.28269 
3.73466 
3.75125 
3.75916 
2.36675 
3.72475 
2.34663 
2.29862 
3.63701 
2.26958 
3.75667 
2.34289 
3.6916 
2.34277 
2.3646 
2.20038 
3.64284 
3.61828 
2.35742 
3.7184 
3.76202 
2.3436 
3.7548 
2.24939 
2.26275 
2.27627 
2.35476 
2.35272 
2.26276 
3.71838 
3.76703 
2.26646 
2.31853 
2.40655 
2.45307 
3.64996 
3.71773 
2.21798 
2.47692 
2.32958 
2.33645 
3.74283 
2.48981 
3.598 
3.60797 
2.45162 
2.31871 
2.45324 
3.73049 
3.75558 
3.65578 
2.45048 
3.70528 
2.32054 
3.76015 
2.28193 
2.32536 
3.75474 
3.76595 
3.72143 
3.67808 
2.25761 
2.47417 
2.44879 
2.3359 
3.66439 
3.74762 
3.74444 
3.74839 
3.71814 
2.25785 
3.75724 
2.30946 
3.60746 
2.38035 
3.67755 
2.32594 
2.37748 
3.76388 
3.76998 
2.37637 
2.35112 
2.24975 
3.69449 
3.71344 
2.40691 
2.46877 
2.47194 
2.38983 
3.74204 
2.55008 
3.71869 
3.74389 
2.2267 
2.34406 
2.44193 
2.30134 
3.73532 
2.43884 
2.43414 
2.23001 
3.76849 
3.74738 
3.65067 
2.37384 
2.34453 
2.32799 
2.50122 
3.73392 
2.23336 
2.45968 
2.38756 
2.42892 
2.34614 
3.73451 
2.41469 
2.30213 
2.4133 
3.75518 
3.74054 
2.23726 
3.69842 
2.52195 
2.40484 
2.35618 
3.69517 
3.72619 
2.32707 
3.76597 
2.20513 
3.62709 
2.37333 
2.46373 
3.75926 
3.76762 
2.31913 
3.61654 
2.30266 
3.69506 
2.31967 
2.3403 
3.6951 
3.75904 
3.66419 
2.37948 
3.58845 
3.66389 
2.30312 
3.72381 
2.28371 
3.72011 
2.26758 
3.72046 
3.69111 
3.6353 
3.69192 
2.47473 
3.74928 
2.49499 
2.25398 
2.24559 
2.48367 
3.70236 
2.47601 
2.47153 
2.35354 
3.72248 
3.73489 
3.67136 
3.53223 
2.34449 
2.21655 
3.64513 
2.28943 
3.65454 
2.38791 
3.73665 
3.68903 
3.76635 
3.75471 
2.26764 
2.38216 
3.71386 
2.43608 
2.39682 
3.71411 
2.44055 
3.76032 
2.38952 
2.27207 
2.41632 
2.29897 
2.36954 
2.43676 
3.74404 
2.28847 
2.32994 
2.30821 
2.37475 
2.28429 
3.75323 
3.75785 
3.76015 
2.35325 
3.65304 
2.19743 
2.28988 
2.37845 
2.3906 
2.38942 
2.56476 
2.29777 
3.7416 
3.76709 
3.75499 
2.30257 
2.37092 
2.34778 
2.31701 
3.74527 
3.64764 
3.69002 
2.29855 
2.34199 
2.40165 
2.30208 
3.75924 
2.42274 
3.65596 
3.62765 
2.40975 
2.30389 
3.74482 
2.21532 
3.63287 
3.72031 
2.24884 
2.24075 
2.38347 
2.29965 
3.7528 
2.27515 
2.25674 
2.36672 
2.21373 
3.71345 
3.74123 
2.49343 
2.41168 
2.4431 
2.42072 
3.64165 
2.32461 
3.76537 
3.7087 
2.3926 
2.29204 
3.68338 
2.31765 
3.7414 
3.76827 
3.74519 
2.52918 
3.70349 
3.75673 
2.29075 
2.31664 
2.31996 
3.75962 
3.76053 
3.69634 
2.23287 
2.28122 
2.34357 
2.40371 
3.73643 
2.35282 
3.6107 
2.37541 
2.36597 
2.34745 
3.76504 
3.73081 
2.41835 
3.7409 
2.28756 
3.73586 
2.50639 
2.21414 
3.66673 
3.65267 
3.70025 
2.4088 
3.70808 
2.28155 
2.39197 
2.4247 
3.69214 
3.76554 
2.28758 
2.27385 
3.72956 
2.39068 
3.74352 
2.28324 
3.73101 
2.33783 
3.76181 
2.46389 
2.44657 
2.4658 
3.72773 
2.35835 
2.25443 
3.74264 
2.34171 
2.39755 
3.72776 
2.38757 
3.70236 
2.25976 
3.7144 
2.28718 
2.44834 
3.76687 
2.31841 
2.42927 
3.72057 
2.34331 
2.41421 
3.72597 
2.38746 
3.73705 
2.43883 
2.31856 
2.38713 
3.72325 
3.58818 
2.28908 
3.72921 
2.45597 
2.34813 
3.71849 
2.24904 
3.71465 
3.74692 
2.40846 
3.7553 
2.46064 
2.24614 
2.37905 
3.76879 
2.39806 
2.29851 
2.445 
2.37135 
3.72398 
3.73983 
2.33608 
3.6751 
2.42643 
2.29312 
2.34 
3.68942 
3.76843 
2.36384 
3.6785 
3.67035 
2.39355 
2.35458 
3.77017 
2.30114 
3.607 
3.69813 
2.36023 
3.73143 
2.50801 
2.36756 
2.32128 
3.70774 
3.71571 
3.70226 
2.34963 
3.74633 
2.3208 
2.37653 
3.74317 
2.39851 
3.75821 
2.3743 
3.75004 
3.73881 
2.22808 
2.37707 
2.28364 
3.65053 
3.73465 
3.72092 
2.35745 
2.35941 
2.36148 
2.52062 
2.32618 
3.75344 
2.4256 
2.31193 
2.47893 
3.7544 
3.66641 
3.76516 
2.32998 
3.6143 
2.37323 
3.65262 
2.3706 
3.68959 
2.30071 
3.67965 
3.75885 
3.74919 
3.64104 
2.20733 
3.59972 
2.37873 
2.35521 
2.25261 
3.72971 
3.75181 
2.30774 
2.32689 
2.30492 
2.53114 
2.32624 
3.75247 
3.65663 
2.28572 
3.763 
2.37476 
3.714 
2.2339 
3.76015 
3.58696 
3.7355 
2.2767 
2.35223 
2.30771 
2.37705 
3.70625 
2.34211 
3.74795 
2.41807 
2.34962 
2.34038 
3.76525 
3.77063 
2.31953 
3.69858 
3.74791 
2.46404 
2.31676 
2.35253 
3.6459 
3.67498 
2.35148 
3.77054 
2.26197 
2.40505 
2.33203 
3.67862 
3.7603 
3.75638 
2.28276 
2.39285 
2.34817 
3.67927 
2.45886 
3.76348 
3.73464 
3.70153 
2.26928 
3.66487 
2.30592 
2.36874 
2.32814 
3.67589 
3.67345 
2.37853 
3.73358 
3.67006 
2.52954 
3.6362 
2.27861 
3.74583 
3.71689 
3.7677 
2.37024 
2.4606 
3.69908 
3.73839 
2.41226 
3.73872 
3.76997 
2.27527 
3.72838 
3.68809 
3.63757 
2.24105 
3.57155 
3.75211 
2.29139 
3.65975 
3.54599 
2.35094 
3.76451 
3.77057 
3.7003 
3.6973 
2.25098 
3.71617 
3.72012 
2.25796 
3.72566 
2.26235 
3.57856 
3.6391 
3.63865 
2.31985 
3.7401 
3.66875 
3.71636 
2.40974 
3.66975 
2.24366 
3.66912 
2.33851 
2.3421 
3.71633 
3.76435 
3.61712 
2.38149 
2.28863 
3.73999 
2.26109 
2.35481 
3.76035 
2.50668 
2.34467 
3.75663 
2.57843 
2.40283 
2.30848 
2.28722 
2.36677 
3.60991 
2.42894 
2.43258 
2.24872 
2.34074 
3.64658 
3.72378 
3.70839 
2.24064 
2.30625 
3.74737 
2.4075 
2.32712 
2.34429 
2.31215 
3.63991 
3.71425 
2.21606 
3.75091 
2.31589 
2.39474 
3.76802 
2.43055 
3.71258 
2.44655 
3.69252 
2.37105 
3.69718 
3.76149 
2.37212 
2.37164 
3.74512 
3.76975 
2.47477 
2.38033 
3.76697 
2.34263 
2.32572 
3.62465 
2.41588 
3.70898 
2.36005 
3.74571 
2.4399 
3.69274 
2.45637 
2.21426 
3.76974 
3.76295 
2.45476 
2.24246 
2.29283 
3.54735 
3.72046 
2.27017 
2.29041 
3.74818 
3.76945 
3.64213 
3.7568 
3.69003 
2.30264 
2.43609 
2.35578 
3.71641 
2.29868 
3.62473 
3.69786 
3.74946 
3.71829 
2.25437 
3.73775 
2.28911 
2.42807 
2.44471 
3.75057 
2.34986 
2.4214 
3.7594 
3.75568 
2.37513 
3.76849 
2.34144 
3.77059 
2.20832 
3.73212 
3.6199 
2.3863 
3.64748 
2.44981 
3.73598 
2.34399 
2.34978 
3.67506 
2.2747 
3.69715 
2.2989 
2.36937 
3.70575 
3.65814 
2.23735 
3.70297 
2.47108 
3.6884 
2.64117 
3.56789 
2.35085 
3.61677 
2.40881 
3.71147 
2.35873 
3.62246 
2.40155 
2.33946 
2.42892 
3.7648 
3.71549 
2.2911 
3.71524 
3.7251 
3.65404 
2.33555 
2.3016 
3.73601 
3.76587 
2.29385 
3.69757 
2.27727 
3.63479 
2.33665 
3.71969 
2.48306 
2.46214 
2.33668 
2.44349 
2.23132 
3.76133 
3.61401 
3.72936 
2.35299 
3.73727 
2.40774 
3.75438 
2.2662 
3.65445 
2.36863 
3.66021 
2.38077 
2.32233 
2.27304 
3.7373 
2.34219 
2.34923 
2.5288 
2.39266 
2.41992 
3.76866 
2.31594 
3.68341 
2.50595 
2.35236 
3.73531 
2.3606 
2.35872 
3.73627 
3.62281 
2.27648 
3.70834 
2.40391 
3.73351 
2.36722 
2.33425 
3.72469 
2.43875 
2.39228 
3.76362 
2.38382 
3.74614 
2.34105 
2.41546 
3.70587 
2.28412 
2.41805 
3.7668 
3.74673 
2.38677 
2.33137 
3.7036 
2.29554 
2.26667 
3.72057 
2.30022 
3.74827 
2.36537 
2.44051 
2.32091 
3.69944 
2.29386 
3.73297 
2.3799 
2.47199 
3.75679 
2.26514 
3.75508 
2.43833 
2.18359 
2.40337 
3.65685 
2.44674 
3.72939 
2.59435 
3.72987 
2.30733 
2.31889 
2.3712 
3.66447 
2.31064 
3.72275 
3.76197 
2.30523 
2.23901 
3.71882 
3.66175 
2.24233 
3.73536 
3.72994 
3.66366 
2.36269 
3.72571 
2.34937 
3.67612 
2.32992 
3.73227 
3.58765 
2.32384 
2.44042 
3.70696 
2.25148 
3.76517 
2.31471 
2.21199 
3.76244 
3.67446 
3.69623 
2.29535 
3.73505 
2.49125 
2.37755 
3.71846 
2.49463 
2.30381 
3.61525 
2.1964 
3.73013 
2.35887 
2.40495 
3.64535 
2.32121 
3.62181 
2.29721 
3.73862 
2.30571 
2.51036 
3.73782 
2.36479 
3.76276 
2.44542 
3.76955 
2.36507 
2.34312 
3.65032 
3.71151 
3.72791 
2.33775 
2.54301 
3.58882 
2.43761 
3.72397 
2.24867 
3.6662 
2.35476 
3.67042 
2.32664 
3.76503 
2.30798 
3.7469 
2.36868 
2.316 
2.37263 
2.29191 
2.4524 
3.72355 
3.73003 
3.75983 
3.73967 
2.45362 
2.24436 
3.70925 
2.322 
2.33478 
3.73175 
3.69566 
2.17467 
2.45334 
3.76068 
2.37797 
2.32177 
2.43767 
2.27521 
3.66475 
2.43653 
2.34032 
3.65051 
2.39558 
3.75066 
3.70218 
2.44785 
3.76674 
3.76371 
2.38666 
2.37491 
3.76217 
3.76908 
3.69522 
3.74268 
3.72569 
2.32762 
3.72269 
2.27141 
2.47076 
2.36118 
3.73308 
2.2318 
3.72853 
2.24536 
2.32642 
3.70995 
3.76695 
2.46497 
2.35379 
2.31721 
3.60136 
3.72336 
3.72437 
2.24104 
2.22464 
2.43701 
2.2963 
3.60209 
3.706 
2.47331 
2.31984 
3.74793 
3.75333 
3.69028 
2.30466 
3.59069 
2.37482 
2.32291 
2.48876 
2.27548 
2.28794 
3.709 
2.30622 
3.68032 
2.381 
3.69966 
2.43506 
3.66716 
2.43894 
3.73382 
3.63087 
2.35491 
2.34511 
2.29433 
2.51262 
3.71301 
3.76528 
2.38328 
2.19007 
3.6911 
3.70265 
3.72168 
3.71847 
2.42832 
3.74798 
2.39418 
2.43653 
2.36286 
3.67893 
3.70639 
2.30409 
3.7232 
2.2345 
3.75524 
2.39092 
3.77072 
3.75524 
2.35872 
2.49872 
2.31092 
3.7196 
2.47788 
2.25783 
2.40421 
2.38614 
3.72984 
3.75082 
3.71247 
2.36259 
2.34915 
3.75867 
3.6777 
2.29744 
3.70108 
2.31737 
3.62606 
2.41345 
2.47677 
3.74987 
2.28973 
3.75808 
2.36436 
3.76882 
2.52025 
3.72635 
2.36515 
3.77109 
2.42797 
3.75797 
3.72919 
2.28386 
2.24742 
3.74943 
2.29083 
2.37717 
3.71906 
2.31324 
2.34737 
2.32545 
3.66245 
2.52602 
2.42938 
2.1949 
2.38184 
2.34536 
2.31511 
3.63358 
2.2883 
2.38422 
3.72998 
3.71327 
2.21954 
3.70924 
2.40486 
2.26766 
2.31345 
3.60479 
2.33717 
2.43008 
2.30615 
2.44396 
3.69243 
2.28645 
3.75392 
2.33989 
2.33647 
2.29161 
2.41876 
2.32584 
2.36131 
2.29928 
2.29135 
3.75384 
2.37838 
2.25306 
3.62343 
2.30119 
3.7462 
3.66209 
2.32279 
3.68554 
2.35906 
3.71753 
3.76219 
2.25232 
3.68079 
2.3769 
3.74136 
2.38915 
2.34336 
2.33019 
3.72677 
2.29973 
2.53305 
3.73492 
2.38712 
3.77074 
2.44302 
2.48598 
2.43201 
2.31652 
3.69358 
2.25128 
3.73365 
2.2623 
2.35926 
2.38689 
3.65208 
2.36711 
2.33398 
2.41848 
2.24896 
2.37075 
3.72457 
3.63168 
2.3356 
2.32549 
2.32429 
3.61885 
2.2434 
3.6846 
2.45165 
3.67779 
3.75197 
2.46757 
2.29727 
2.28299 
3.58287 
2.4458 
3.63027 
2.43407 
2.34701 
2.36993 
3.77071 
3.75585 
3.72081 
2.23936 
3.67904 
2.2381 
2.34934 
2.39069 
3.71251 
2.57454 
2.34287 
2.36439 
2.41349 
3.75362 
3.68651 
3.72585 
3.75387 
2.32561 
2.41938 
2.34041 
2.18887 
3.76587 
3.74975 
2.42759 
3.74047 
2.38312 
2.41819 
2.32667 
3.7698 
3.55297 
3.733 
2.47633 
3.58563 
3.67292 
2.37917 
2.36073 
2.29113 
3.74773 
2.36688 
3.73711 
2.39256 
2.34418 
2.38621 
3.69144 
3.5238 
3.76566 
3.68004 
2.37772 
2.44603 
2.27058 
2.5339 
3.7473 
2.54701 
2.42383 
2.39416 
2.4572 
2.32763 
2.25978 
2.38683 
2.41489 
3.76689 
2.30128 
3.56184 
2.40061 
2.30923 
3.6712 
2.28371 
3.72807 
3.75967 
2.46184 
3.72159 
3.64719 
2.23871 
2.29266 
2.28146 
2.33458 
3.71044 
2.38919 
2.36079 
2.35841 
3.70001 
3.73436 
3.65725 
3.69021 
2.40668 
3.7463 
3.75716 
2.23655 
3.72486 
2.20407 
3.66187 
2.38601 
3.72362 
3.71633 
3.6981 
2.35598 
3.73181 
3.76357 
2.21436 
3.66302 
2.31353 
3.62961 
2.28855 
2.51777 
3.6921 
2.29377 
3.72653 
2.24731 
2.31206 
3.76898 
2.39554 
2.40938 
2.34588 
3.73535 
2.32249 
3.64569 
2.39609 
3.76469 
2.33651 
2.36828 
2.44944 
3.73488 
2.31603 
3.73432 
2.34354 
3.73354 
2.29304 
3.74914 
2.42951 
3.76485 
2.36078 
2.44458 
2.55865 
2.43586 
2.30878 
2.27188 
2.35823 
2.25815 
3.68634 
3.6798 
3.71705 
3.68555 
2.24885 
3.68145 
2.37196 
2.31126 
2.36181 
3.72969 
3.76859 
2.42798 
2.34661 
2.31118 
2.32406 
3.75128 
2.2501 
3.6176 
2.37379 
2.43959 
2.34479 
3.74307 
3.68397 
2.20276 
3.62047 
2.33388 
2.3658 
2.28455 
3.77078 
3.71193 
2.39086 
2.46569 
2.3484 
2.48315 
3.66354 
2.44453 
3.69046 
2.37952 
3.64645 
2.39805 
2.31604 
3.76235 
2.45373 
2.39089 
2.34429 
2.34344 
3.7364 
2.27163 
2.28987 
2.50795 
3.74437 
2.34017 
3.58186 
3.65434 
3.64487 
3.7325 
2.42491 
3.73241 
3.70434 
2.32288 
2.27798 
3.67099 
2.33014 
2.44864 
3.66195 
3.63591 
2.3215 
2.27718 
2.46446 
3.70438 
2.40531 
2.36193 
2.41942 
2.25137 
3.7488 
3.68489 
2.34494 
3.74683 
3.73465 
2.37518 
2.28105 
2.36332 
3.74528 
2.21517 
2.24665 
2.40591 
2.30805 
3.71078 
2.37951 
3.73199 
3.65401 
2.42343 
3.74418 
2.37684 
2.30212 
3.62457 
3.66381 
2.37365 
2.40757 
2.4909 
2.44294 
3.75483 
2.2972 
3.70496 
2.37985 
3.71795 
2.36201 
2.41273 
3.7184 
3.72532 
2.34055 
2.48095 
2.32056 
2.35231 
3.60696 
3.71952 
2.48472 
2.37706 
2.30247 
2.28502 
3.72618 
3.75457 
3.7463 
3.7269 
2.30103 
2.37129 
2.3619 
2.39054 
2.35455 
2.29458 
3.75757 
2.37042 
2.42676 
3.72388 
2.44893 
3.57781 
2.22389 
3.71639 
2.37835 
2.45939 
3.76062 
3.69795 
3.5962 
3.70708 
2.5268 
2.3895 
2.34886 
3.63689 
2.39292 
3.71295 
3.69983 
2.3102 
2.37918 
3.64771 
2.29851 
3.73827 
2.31646 
3.70516 
3.65461 
3.69502 
2.26994 
3.71236 
2.40442 
2.27122 
3.75347 
2.27939 
3.69063 
3.70561 
2.30035 
3.72931 
2.31713 
2.42806 
2.32181 
2.41718 
2.48053 
2.53483 
2.48006 
2.32892 
2.51745 
2.40487 
2.28554 
2.30146 
3.75318 
2.33846 
3.72356 
2.49298 
2.37528 
3.7189 
2.28242 
2.35713 
3.59733 
2.36845 
2.30052 
3.7471 
2.41109 
2.37842 
2.54772 
2.4019 
3.68653 
3.76065 
3.63391 
3.54053 
2.41284 
3.59308 
2.3393 
2.21539 
3.72413 
2.33977 
3.55769 
3.71023 
2.24278 
3.61292 
3.6944 
3.76135 
2.34307 
3.75858 
2.31083 
3.71613 
2.51878 
3.72381 
3.57178 
2.31748 
3.74482 
3.73038 
2.42572 
3.70204 
2.385 
2.37376 
3.73783 
3.64047 
2.45254 
2.48442 
2.32756 
2.35757 
2.43051 
2.32537 
2.42661 
2.30991 
3.77083 
3.76892 
2.38775 
2.27844 
3.62536 
2.53926 
2.34294 
3.67038 
2.31289 
3.74382 
2.33636 
2.55097 
2.35915 
2.29763 
2.23102 
3.69007 
2.51255 
2.38798 
3.71983 
2.46435 
2.49214 
2.33241 
2.37169 
3.67387 
2.40644 
2.36428 
3.72268 
2.27294 
2.38976 
2.2729 
2.32205 
3.59787 
2.44161 
2.34607 
3.74644 
2.24326 
3.66628 
2.41329 
2.36912 
2.35847 
3.74507 
3.7053 
3.68295 
2.37143 
2.29887 
3.72971 
2.34802 
2.27269 
3.742 
2.43655 
3.66682 
2.32261 
2.35346 
2.38106 
3.61943 
2.43314 
3.73465 
3.74674 
2.26228 
2.47221 
2.27842 
3.71865 
2.40449 
3.64601 
2.28346 
2.35749 
2.26247 
3.74506 
3.69786 
3.70622 
2.33306 
3.67232 
2.251 
3.74543 
2.33969 
2.32894 
3.7284 
2.38249 
3.69522 
3.6646 
2.38293 
3.64951 
2.40491 
3.71563 
2.32415 
2.30827 
2.35192 
2.33916 
2.41714 
2.34531 
3.66611 
2.34023 
2.34508 
2.41261 
3.67891 
3.75147 
2.20551 
2.39625 
2.33409 
3.68437 
2.36615 
3.7324 
3.76508 
2.48803 
3.73162 
3.71855 
3.68065 
2.41864 
2.33336 
2.40256 
3.74987 
3.73549 
2.35709 
3.69655 
2.37486 
3.76788 
2.41981 
2.27738 
3.71843 
2.43136 
3.7536 
2.4807 
2.42739 
2.39491 
3.76272 
2.3435 
3.74514 
3.6773 
2.18135 
3.67768 
2.37031 
3.69973 
2.25605 
3.67283 
3.67364 
3.73886 
2.30583 
3.753 
3.67985 
2.21852 
2.27051 
3.74015 
2.36198 
3.76807 
3.76655 
2.26694 
2.38183 
2.38714 
2.39197 
3.73038 
3.76736 
2.24517 
3.68103 
3.65735 
2.34584 
3.76668 
2.40266 
3.65597 
2.36825 
2.34385 
2.39082 
3.64025 
2.29423 
3.69428 
3.69353 
3.73035 
3.62397 
2.25339 
2.27923 
3.64252 
3.74897 
2.28778 
2.26815 
3.76199 
2.355 
3.59708 
3.76064 
2.39184 
3.71867 
3.7277 
2.31385 
3.65244 
3.61052 
2.4967 
2.36097 
3.73946 
2.35204 
3.76907 
3.7024 
2.23941 
3.70585 
2.33633 
3.71721 
3.71863 
2.3356 
3.66903 
3.77105 
2.30507 
2.25919 
3.75228 
2.30995 
3.71391 
2.3438 
3.75243 
2.60721 
2.26776 
2.41157 
2.37837 
2.41986 
3.7352 
3.7004 
2.37452 
3.5743 
2.3451 
2.31951 
2.4978 
2.32555 
2.33764 
3.73577 
2.34749 
3.76912 
2.49598 
3.70504 
2.31059 
3.64939 
3.61912 
2.35628 
3.76445 
3.66738 
2.24794 
2.4093 
2.27212 
2.3593 
3.76182 
3.58626 
2.37436 
2.29152 
3.71195 
2.26693 
2.35558 
3.65044 
3.60164 
2.35346 
2.31841 
3.72429 
2.30008 
2.29421 
2.33253 
2.30895 
3.7321 
2.35166 
2.48116 
3.73567 
3.71457 
3.62206 
2.43415 
2.51043 
3.76925 
2.32609 
2.40164 
2.34119 
2.35944 
3.66591 
3.74751 
3.70517 
2.29558 
2.34394 
2.33819 
2.35153 
3.76188 
3.7458 
3.74891 
2.42344 
2.34239 
2.49753 
2.57113 
3.77113 
2.28946 
2.38778 
3.65453 
2.32827 
3.69096 
3.67796 
2.45993 
2.26867 
2.25224 
2.37728 
2.31494 
3.74734 
3.74254 
3.68459 
2.35732 
2.35239 
2.30723 
3.69457 
2.34784 
2.34734 
2.36759 
2.3634 
2.24648 
2.2857 
3.7655 
2.37377 
3.75976 
3.7091 
2.34918 
2.3768 
3.74113 
2.34446 
2.2933 
3.67235 
3.66774 
2.34956 
2.45909 
3.63208 
2.34841 
2.43508 
2.37837 
3.75281 
2.36349 
3.76195 
3.65687 
2.36052 
3.67745 
2.29946 
2.31743 
2.42675 
2.32726 
2.38141 
2.33041 
2.39378 
3.75039 
3.71008 
2.31805 
3.73681 
2.29373 
2.27839 
2.48497 
3.70576 
2.22969 
3.75721 
2.32089 
2.34748 
3.6501 
3.72583 
2.41248 
3.56569 
3.73754 
2.33557 
3.7473 
2.3127 
3.76197 
2.31115 
3.67654 
3.73041 
2.33508 
2.32762 
3.72389 
2.3519 
2.33555 
3.71909 
2.23905 
3.64382 
2.32656 
2.4305 
2.39615 
3.74103 
2.31493 
2.27734 
3.70881 
3.734 
2.3912 
2.46509 
2.49905 
2.33085 
3.73065 
2.35054 
2.32172 
2.2681 
3.76794 
2.40493 
3.62998 
3.72117 
2.31774 
2.28819 
3.6764 
3.65982 
2.26744 
3.68779 
3.75618 
2.37211 
2.27631 
2.29588 
2.3858 
3.7207 
2.36562 
3.75332 
3.73551 
2.51005 
2.42006 
3.69293 
2.31171 
2.27329 
3.75669 
3.76402 
2.4419 
2.31193 
3.76365 
2.37351 
3.76707 
2.36732 
3.76764 
2.32935 
3.73143 
2.36648 
3.68164 
3.75761 
3.62179 
2.43237 
2.44896 
3.68736 
2.50415 
2.42013 
2.46907 
2.43083 
3.64908 
2.30053 
3.65962 
2.21969 
3.71447 
2.42338 
2.35132 
2.40139 
2.40713 
3.72361 
2.23974 
3.66801 
3.71416 
2.48257 
3.70988 
2.36175 
3.74229 
2.42353 
2.34672 
2.49283 
2.21874 
3.75698 
2.43484 
2.39371 
2.37252 
3.64385 
2.27926 
2.39365 
2.50178 
2.34527 
2.52797 
2.25428 
2.5537 
2.49759 
2.33303 
3.71342 
2.39003 
3.7293 
3.69873 
3.69985 
2.4098 
3.71354 
2.24733 
3.74191 
2.27214 
3.7362 
2.40343 
2.40151 
3.76451 
3.7411 
2.34666 
2.38821 
3.76807 
2.33322 
2.50241 
3.69911 
2.26293 
3.74085 
2.32348 
3.68932 
2.43825 
3.7225 
2.32892 
2.41287 
3.65712 
3.71433 
2.27159 
3.6763 
2.2527 
3.60844 
2.40462 
2.30231 
3.71315 
2.32376 
3.7346 
3.75003 
2.22508 
2.49205 
3.66706 
3.75026 
3.69669 
2.33405 
2.47316 
2.38946 
2.33969 
3.73503 
3.72454 
2.42747 
3.62774 
2.38131 
2.34842 
2.34403 
2.42381 
2.32263 
2.45157 
3.68995 
2.32372 
3.61835 
2.28028 
3.67335 
3.75886 
3.66449 
2.27906 
2.48483 
2.35343 
3.75562 
3.72663 
3.75006 
2.32578 
2.36315 
2.42072 
3.57887 
2.37332 
3.61225 
3.73046 
3.77024 
2.28581 
2.23638 
3.76007 
2.44035 
3.68301 
2.20195 
3.75635 
2.3937 
2.34528 
3.71027 
3.75037 
2.38848 
2.35405 
2.41129 
3.74946 
2.24671 
3.76217 
3.57392 
3.70906 
2.37339 
2.27443 
3.63164 
3.69917 
3.70582 
2.31139 
3.70547 
2.38475 
3.65871 
3.70222 
2.42541 
2.39026 
3.69753 
3.69579 
2.26254 
2.41362 
3.68895 
2.31471 
3.66055 
2.30462 
2.41848 
2.39797 
2.34723 
2.41003 
2.27302 
3.75539 
2.28154 
3.75342 
3.56826 
2.32666 
2.35445 
3.69046 
2.31561 
2.44886 
2.26186 
2.47076 
2.30499 
2.48733 
2.26048 
2.37084 
3.74065 
3.72845 
3.76595 
2.33102 
2.38792 
2.34124 
2.28715 
3.6732 
3.69518 
3.73315 
2.39284 
3.74517 
2.40428 
2.38575 
2.40742 
3.75324 
2.4031 
2.30584 
2.28011 
2.37202 
3.68862 
3.71616 
2.30397 
2.36437 
3.64864 
2.28127 
3.69061 
3.67764 
2.30516 
3.75886 
3.74947 
3.68438 
2.42168 
3.68042 
2.31286 
2.40653 
3.71831 
2.47717 
2.44697 
3.74061 
2.57558 
2.39895 
2.44871 
3.66042 
2.30416 
3.74711 
3.75902 
2.21538 
2.28919 