ITEM: TIMESTEP
10
ITEM: NUMBER OF ENTRIES
95314
ITEM: BOX BOUNDS pp pp pp
0 108.62
0 108.62
0 54.31
ITEM: ENTRIES c_pairDist 
2.37129 
2.43602 
3.75899 
2.48143 
3.67571 
3.7389 
2.30954 
3.74766 
2.29089 
2.37561 
2.36129 
3.7662 
2.24046 
3.73362 
2.44585 
2.38179 
2.34837 
2.41923 
2.31637 
2.40925 
2.40981 
2.39911 
2.34417 
3.74362 
3.75625 
2.33377 
3.76431 
2.33932 
3.76939 
2.27518 
3.73045 
2.41383 
2.3659 
3.76458 
2.39767 
2.42791 
2.26155 
2.33008 
2.33792 
3.75777 
3.75626 
2.32484 
3.71983 
2.27039 
2.43082 
2.30844 
2.41733 
2.32176 
3.75951 
2.35261 
2.49855 
2.30593 
2.42512 
3.71095 
3.76211 
2.32304 
3.7133 
2.33322 
2.33319 
2.51587 
2.38823 
3.75916 
2.41673 
3.77063 
2.39688 
2.30065 
3.73874 
2.31582 
2.46939 
3.75116 
3.75077 
2.35927 
3.70455 
2.24594 
3.64722 
2.29885 
2.45307 
2.45949 
2.38891 
2.43824 
2.26265 
3.72252 
2.46986 
2.34779 
3.72641 
3.68966 
2.23224 
2.29519 
2.36474 
3.74332 
2.32231 
2.43358 
3.76267 
2.28221 
3.75933 
3.72271 
2.32866 
3.771 
2.33552 
2.29358 
2.29289 
3.77116 
2.36625 
2.40908 
2.33705 
2.38308 
2.41776 
2.32274 
3.75901 
3.72717 
2.30098 
3.69277 
2.46944 
2.31874 
2.27237 
3.74175 
2.2714 
2.34242 
2.40185 
2.26856 
2.23984 
3.74556 
2.32897 
2.37124 
2.3057 
2.27574 
2.40258 
3.73099 
3.72586 
2.38435 
2.37655 
3.76573 
2.38206 
2.3775 
2.28925 
3.73008 
3.77041 
3.73041 
3.76243 
2.297 
3.76515 
3.71181 
2.43099 
2.27323 
2.19965 
2.47291 
2.33632 
2.38404 
2.33442 
2.36672 
2.29042 
2.38602 
2.38531 
2.33999 
3.77069 
3.76193 
2.42395 
3.64542 
2.33981 
2.20316 
2.25602 
3.68235 
2.3213 
2.26788 
2.48264 
2.33436 
3.71578 
2.28646 
3.74701 
2.42975 
2.42962 
2.44019 
2.29549 
3.76914 
2.24302 
3.74585 
2.23671 
2.33024 
3.7182 
2.29926 
2.34304 
2.40803 
2.17402 
3.75792 
3.70077 
2.32228 
2.33354 
2.47298 
2.23738 
3.71871 
3.68238 
3.75193 
2.34989 
2.27557 
2.36743 
2.28519 
3.7315 
3.76208 
2.33834 
2.36667 
2.36789 
2.26717 
3.7639 
2.40389 
3.75077 
2.29618 
2.33151 
2.26615 
3.76674 
3.76956 
2.38045 
2.46281 
2.29577 
2.32663 
3.72649 
2.31685 
2.46055 
2.4385 
2.46282 
2.36738 
3.72653 
2.30569 
3.76544 
2.43741 
2.34757 
2.38228 
3.7619 
3.74716 
2.27378 
2.473 
2.36267 
3.76275 
2.38982 
2.46336 
2.36793 
3.7467 
2.36591 
3.72678 
3.75207 
3.76929 
2.37033 
2.43047 
2.35186 
2.29603 
3.7623 
3.74364 
2.37181 
3.75019 
2.37957 
2.2261 
2.34826 
3.72092 
2.27735 
3.76773 
2.3258 
2.31937 
2.43605 
2.37518 
3.76441 
3.69063 
2.32713 
2.25713 
2.2846 
3.76268 
3.71341 
3.72076 
3.7562 
2.39789 
2.34522 
2.31635 
2.23571 
3.72975 
2.41102 
2.46918 
2.45232 
2.43429 
2.41804 
3.70884 
2.33159 
3.752 
2.43223 
2.24146 
3.76287 
3.71823 
3.76713 
2.25809 
2.27552 
2.40881 
2.33683 
3.69546 
2.27594 
2.30266 
2.46475 
2.44304 
3.75435 
2.27801 
2.4238 
2.33574 
2.36862 
3.73849 
3.70397 
2.41243 
2.30507 
2.36296 
3.75071 
2.39958 
2.26265 
2.36987 
2.39272 
2.29727 
3.73681 
2.33317 
2.33077 
2.32533 
2.33803 
3.7697 
3.75494 
2.40396 
3.69729 
3.77066 
2.36847 
2.30732 
2.40667 
3.7105 
2.44058 
2.26577 
2.34463 
2.38586 
2.23878 
2.33424 
2.40214 
2.41145 
3.73199 
3.76296 
2.4141 
2.16985 
2.38159 
2.41067 
3.72178 
2.32171 
3.74968 
2.305 
2.30929 
3.75844 
2.23758 
3.73713 
3.74629 
2.29147 
2.40185 
2.3011 
2.32978 
2.41843 
3.75953 
3.73241 
2.29786 
2.35391 
2.18137 
3.73106 
2.3965 
3.76399 
2.36446 
2.4185 
2.34198 
3.70102 
2.26447 
2.40006 
2.46841 
2.33655 
3.73346 
3.70462 
2.29154 
2.41675 
2.39706 
2.29581 
3.74252 
3.69153 
2.43966 
3.76697 
3.76963 
2.46012 
2.26274 
2.424 
2.24655 
2.46001 
2.36377 
2.21966 
3.69843 
2.34905 
3.71372 
2.3777 
2.36525 
2.2446 
3.7393 
2.40637 
2.32648 
2.32566 
2.48032 
3.71334 
3.73796 
2.21432 
2.32124 
3.73317 
2.33989 
2.30141 
3.76611 
3.72556 
2.37135 
2.46 
2.40295 
2.38344 
3.74177 
3.74413 
2.32015 
3.75129 
2.23421 
3.73996 
2.29046 
2.2551 
2.47429 
2.35381 
2.42934 
2.30545 
3.70459 
3.7461 
2.2823 
2.41628 
2.38812 
2.31398 
3.65916 
3.73817 
2.46184 
3.74446 
2.29574 
2.31963 
2.37388 
2.28477 
3.69138 
2.44435 
2.31955 
2.36662 
3.73929 
2.38355 
3.73022 
2.35257 
2.31263 
3.72684 
2.32699 
3.75541 
3.73548 
3.63047 
3.67693 
2.2869 
2.33888 
2.35201 
2.30699 
3.71545 
3.74981 
2.27327 
2.26521 
2.41252 
2.36678 
2.32288 
2.46214 
2.31899 
2.37981 
3.7437 
2.37671 
3.73391 
3.76156 
2.36117 
2.19498 
3.71821 
2.34524 
3.75282 
3.74493 
2.41488 
3.77036 
3.7285 
2.39733 
2.31789 
3.72807 
2.25756 
3.72954 
2.39595 
3.76169 
2.32654 
2.36697 
2.44383 
3.76145 
2.22594 
2.39316 
3.73435 
2.24765 
2.45881 
2.38563 
3.65715 
2.22429 
3.76641 
2.39143 
2.37221 
2.405 
3.67676 
2.41252 
2.35226 
2.38079 
3.67388 
2.36531 
2.37441 
3.7464 
2.21062 
2.3856 
3.69653 
2.41204 
3.76465 
2.34204 
2.40667 
3.76011 
2.32885 
2.38408 
3.76279 
3.75189 
3.7446 
2.29183 
3.72517 
3.73691 
3.70673 
2.32819 
3.77112 
2.35212 
3.72658 
2.43782 
3.76881 
3.73341 
2.27038 
3.68753 
2.35636 
3.68818 
3.70221 
2.40703 
3.76474 
2.40821 
3.76626 
2.3695 
2.31455 
2.27506 
3.77006 
2.47183 
3.72446 
3.76973 
2.33129 
2.29141 
2.33491 
2.46855 
2.34466 
3.74062 
2.30568 
3.76757 
2.19618 
2.39179 
2.3345 
2.44079 
3.73507 
3.71113 
2.33352 
2.43198 
3.74578 
3.75911 
2.33168 
2.29545 
2.28746 
2.18914 
3.73517 
3.62291 
2.40151 
2.42692 
2.40317 
2.44637 
2.45827 
2.29705 
2.29294 
2.29316 
2.34233 
2.38593 
3.68945 
2.35772 
2.31357 
3.69414 
2.26472 
2.27479 
3.73873 
2.30117 
2.32097 
3.76299 
3.76706 
2.4229 
2.385 
2.39827 
2.23489 
2.48741 
3.73818 
2.35419 
3.74859 
2.3397 
3.74668 
2.30033 
2.43629 
3.73911 
3.73757 
2.43762 
2.36502 
2.35368 
3.76612 
2.44841 
2.39857 
2.35314 
2.24945 
2.44967 
3.74477 
2.29974 
2.39333 
2.42409 
2.34892 
2.33802 
2.35238 
2.40479 
2.29992 
3.70146 
2.4005 
2.28173 
2.27221 
3.73744 
2.39813 
2.40317 
2.27776 
2.32325 
3.73541 
2.32362 
2.48002 
2.46243 
3.68956 
2.37638 
2.41052 
2.35652 
2.31066 
3.74137 
2.22475 
2.42514 
2.35508 
2.35616 
3.77025 
2.37687 
3.72485 
3.77079 
2.30231 
2.36865 
2.36713 
3.76393 
2.43726 
3.74993 
2.29599 
2.46026 
3.75131 
2.41534 
3.69572 
2.38264 
2.38499 
2.51813 
3.76313 
2.32392 
3.76057 
2.44501 
2.35851 
3.75935 
2.3731 
2.25472 
3.77011 
3.71658 
2.27608 
3.70013 
3.74659 
2.39641 
2.42028 
3.7476 
2.29345 
2.41457 
2.41116 
2.33549 
2.39322 
3.66091 
2.29335 
3.75712 
3.69172 
2.46084 
2.45255 
2.34978 
2.29244 
3.75071 
3.76703 
2.41569 
3.77072 
2.34055 
2.23313 
3.75977 
3.76553 
2.30747 
2.2918 
2.37117 
2.38725 
3.75199 
2.31613 
3.7558 
3.76962 
3.71174 
2.34331 
2.30719 
2.37568 
2.38997 
3.70892 
2.24281 
2.3113 
2.43522 
2.35656 
3.76419 
2.3983 
2.29852 
3.75857 
2.36262 
2.37688 
2.31076 
3.76018 
2.36374 
2.34245 
3.75177 
3.76141 
2.25272 
3.75518 
3.71695 
2.39484 
2.42209 
2.40109 
3.69507 
2.32575 
3.73071 
3.74611 
2.34541 
2.36325 
2.33645 
3.74732 
3.75934 
2.33643 
3.72668 
2.35137 
3.76795 
2.43751 
3.6528 
2.25199 
2.42171 
2.33004 
2.37605 
2.3519 
2.32562 
2.37954 
2.28047 
2.33861 
3.76923 
2.22869 
3.68332 
2.3415 
2.34564 
2.35298 
2.40382 
2.33875 
3.74856 
2.41394 
2.28827 
2.35875 
2.31956 
3.68482 
2.40527 
2.33289 
3.69104 
2.2489 
3.74147 
3.71236 
2.34273 
2.26759 
3.69087 
2.2896 
2.38242 
3.75467 
2.35436 
2.27411 
3.73152 
2.38626 
3.71044 
2.31022 
2.32676 
3.69028 
2.29794 
2.48957 
2.18335 
3.68905 
3.71672 
2.32914 
3.74798 
2.28778 
2.33422 
2.35563 
3.67923 
2.28985 
2.33876 
2.35459 
3.71399 
2.39217 
2.19256 
2.31227 
3.7645 
3.68826 
3.70633 
3.75526 
2.36555 
2.41489 
2.3574 
2.40866 
2.42902 
2.35543 
3.7125 
3.73879 
2.43337 
2.39216 
2.16349 
2.31896 
3.70257 
3.67509 
3.74989 
2.38644 
2.27776 
2.35814 
3.76667 
2.21061 
3.70475 
2.37345 
3.65725 
2.42761 
2.45104 
2.41116 
2.4406 
2.46277 
2.37657 
2.25835 
3.74636 
3.69357 
3.71636 
3.75659 
2.32373 
2.42395 
3.7568 
3.76989 
2.2339 
2.34564 
3.63956 
3.76229 
2.37055 
2.3466 
2.23855 
3.72422 
2.39062 
2.42084 
2.39453 
2.32221 
2.29014 
2.36821 
3.71557 
2.32118 
3.7596 
2.45015 
2.37245 
2.27596 
2.34425 
2.36467 
2.35294 
3.73701 
3.74385 
2.53183 
2.35674 
2.3335 
3.74582 
2.50942 
2.21921 
2.2534 
3.70459 
3.73226 
3.76316 
2.2373 
3.76019 
3.76627 
2.33891 
2.45322 
2.35184 
3.72146 
2.51671 
2.38466 
2.25319 
3.683 
2.33681 
3.77082 
2.33553 
2.43633 
3.73773 
3.74703 
3.76581 
2.32977 
2.24009 
2.37785 
2.33401 
2.41295 
2.33345 
2.34819 
2.3719 
2.39767 
2.37854 
2.32409 
2.37639 
3.73011 
2.31471 
2.37148 
2.38532 
2.29351 
2.31438 
2.29757 
3.76155 
2.34214 
2.42596 
3.75061 
2.31072 
3.75813 
2.42414 
2.28175 
2.36728 
2.44902 
2.37075 
2.43488 
2.29405 
3.71423 
2.30956 
2.28795 
2.3067 
2.34263 
3.71148 
2.47755 
2.27192 
2.28763 
2.40942 
2.44354 
3.71857 
2.30497 
2.41037 
2.44762 
2.41726 
2.35334 
3.75581 
2.29259 
2.43975 
2.48444 
2.30326 
2.31417 
2.3746 
2.32855 
3.7612 
2.27034 
2.30432 
2.28589 
3.72757 
2.40026 
2.42993 
3.67861 
2.34114 
3.7675 
3.74255 
2.34976 
2.40198 
3.70451 
2.27342 
3.75662 
2.3138 
3.69867 
2.42438 
2.25933 
2.40507 
2.3917 
3.76363 
2.29075 
2.43992 
2.38087 
2.41444 
3.67482 
2.3275 
2.42391 
2.24003 
3.72374 
2.34221 
3.72005 
3.74547 
2.33116 
3.73546 
2.38558 
2.30562 
2.40078 
2.36061 
3.74425 
2.19064 
2.41275 
2.44029 
3.73843 
2.48695 
3.75448 
3.74031 
2.31206 
2.32662 
2.4661 
3.76077 
2.36161 
3.74522 
2.38812 
2.35266 
2.38071 
3.74247 
3.77117 
2.42207 
3.73651 
2.25754 
2.35721 
2.26256 
2.35962 
2.4637 
2.35307 
2.38551 
2.34864 
3.77042 
2.26438 
2.37843 
2.34836 
2.31664 
3.70459 
2.32387 
2.37375 
2.40248 
3.74213 
3.73364 
2.30917 
2.35854 
2.28764 
3.67104 
2.28833 
3.75773 
2.50416 
3.68556 
2.31541 
2.34871 
2.27426 
3.76143 
2.3759 
3.75389 
2.35689 
2.34306 
3.72277 
2.24291 
2.34415 
3.73979 
2.35456 
2.4035 
2.21964 
3.73757 
3.67815 
2.38985 
3.7676 
3.76682 
2.37702 
2.25896 
2.27264 
2.29356 
2.36781 
2.35175 
2.28399 
3.74846 
2.28784 
2.3213 
2.40839 
2.44675 
3.71735 
2.2127 
3.77101 
2.46764 
2.33139 
2.31269 
2.44875 
3.69512 
3.67869 
2.43716 
2.30655 
2.42749 
3.76282 
3.72089 
2.43458 
3.75258 
2.31527 
2.28296 
2.33003 
3.76877 
3.72373 
2.2592 
2.46095 
2.42874 
2.33984 
3.69563 
3.75197 
2.27887 
2.33209 
3.71257 
2.40792 
3.73364 
2.32955 
2.37488 
2.35704 
2.34884 
2.24092 
3.716 
3.75833 
2.39773 
2.45247 
2.4469 
2.39444 
2.5176 
3.76719 
3.767 
2.21943 
2.34249 
2.43566 
2.28334 
3.76176 
2.42058 
2.41465 
2.23744 
3.77064 
3.72542 
2.38784 
2.3535 
2.35309 
2.47463 
3.77052 
2.21755 
2.43433 
2.37322 
2.40003 
2.35773 
2.41627 
2.28985 
2.39284 
2.23219 
3.76368 
2.49027 
2.40358 
2.37643 
3.73104 
2.33717 
2.21813 
3.68727 
2.37817 
2.4311 
2.33366 
3.70014 
2.33379 
3.72974 
2.3138 
2.32564 
3.72736 
3.72247 
2.39997 
3.66588 
3.74007 
2.33042 
3.74437 
2.30868 
2.26841 
3.75663 
3.76907 
3.69023 
3.72293 
2.45315 
3.76679 
2.47338 
2.25972 
2.23641 
2.45867 
3.76062 
2.44938 
2.44175 
2.37563 
3.76295 
3.74535 
3.65894 
2.33633 
2.23349 
3.71046 
2.29937 
3.70607 
2.38688 
3.74992 
2.25285 
2.37823 
2.43158 
2.40431 
3.74727 
2.41362 
2.38708 
2.2713 
2.39652 
2.30209 
2.35124 
2.41183 
3.77115 
2.29247 
2.34916 
2.30817 
2.3945 
2.32434 
3.76181 
2.3743 
3.70489 
2.20522 
2.32394 
2.35805 
2.38069 
2.3839 
2.49938 
2.31576 
3.76735 
2.3175 
2.36851 
2.35649 
2.31622 
3.71908 
3.73496 
2.29959 
2.34038 
2.40324 
2.29447 
2.40624 
3.73195 
3.69316 
2.40002 
2.31499 
2.23699 
3.6991 
3.74336 
2.2805 
2.26202 
2.40088 
2.3165 
3.77112 
2.30272 
2.27099 
2.36194 
2.19115 
3.76063 
3.77072 
2.46483 
2.40472 
2.43246 
2.41802 
3.70648 
2.33078 
3.7587 
2.37935 
2.31492 
3.74321 
2.31562 
2.48571 
3.74838 
2.29759 
2.31816 
2.34961 
3.76603 
3.72433 
2.23645 
2.29549 
2.35186 
2.39036 
3.75273 
2.34765 
3.71433 
2.38161 
2.36141 
2.34425 
2.40889 
2.28806 
2.46586 
2.23636 
3.75912 
3.70259 
2.39875 
3.76229 
2.30539 
2.40419 
2.40597 
3.7402 
2.31129 
2.27936 
2.40211 
2.27363 
3.7572 
2.35283 
2.44062 
2.41553 
2.43705 
3.73753 
2.36097 
2.25289 
3.76367 
2.35226 
2.4016 
3.76199 
2.39443 
3.76025 
2.272 
3.7339 
2.29643 
2.41742 
2.30405 
2.40974 
2.33893 
2.41811 
3.76739 
2.37605 
3.74375 
2.42062 
2.3111 
2.37582 
3.68279 
2.28454 
2.41428 
2.37787 
3.75607 
2.24031 
3.73817 
2.39783 
2.46109 
2.25493 
2.37128 
2.39567 
2.27932 
2.42225 
2.37033 
2.35001 
3.73668 
2.41602 
2.31004 
2.32546 
3.756 
2.34339 
3.75464 
3.74235 
2.3858 
2.36561 
2.2867 
3.66527 
3.75329 
2.36729 
2.46438 
2.37138 
2.32787 
3.74793 
3.7668 
3.76847 
2.35011 
2.31827 
2.40228 
3.76979 
2.38634 
2.38172 
3.76768 
3.74504 
2.23835 
2.3701 
2.28451 
3.73098 
3.7702 
3.76548 
2.35943 
2.34702 
2.37735 
2.46914 
2.31788 
2.39919 
2.3115 
2.46133 
3.73145 
2.31305 
3.68587 
2.37261 
3.71007 
2.36825 
3.73879 
2.31065 
3.73031 
3.7703 
3.70268 
2.25101 
3.68346 
2.36655 
2.36778 
2.26647 
3.76857 
3.76083 
2.33795 
2.34695 
2.3063 
2.48564 
2.33401 
3.76385 
3.73925 
2.28736 
3.76395 
2.3558 
3.76033 
2.26791 
3.69451 
3.76889 
2.27964 
2.36807 
2.33046 
2.37787 
3.72459 
2.36515 
3.74806 
2.40757 
2.34153 
2.34278 
2.33588 
3.76177 
2.44593 
2.32353 
2.35473 
3.70292 
3.75958 
2.35231 
2.26801 
2.4147 
2.34591 
3.74548 
2.28461 
2.3974 
2.34251 
3.75211 
2.45563 
3.73407 
2.267 
3.71721 
2.29797 
2.38921 
2.34953 
3.72728 
3.72863 
2.35526 
3.76788 
3.74742 
2.47403 
3.70153 
2.29879 
3.7433 
2.38113 
2.43467 
3.76356 
2.40773 
2.28819 
3.76375 
3.74222 
3.70264 
2.2397 
3.67502 
2.28802 
3.73082 
3.64412 
2.36033 
3.76344 
3.76744 
2.27188 
3.73109 
3.7428 
2.29214 
3.74602 
2.29551 
3.66556 
3.73478 
3.68998 
2.33139 
3.76983 
3.73889 
2.40595 
3.72854 
2.2436 
3.73082 
2.34127 
2.34619 
3.74515 
3.69808 
2.38534 
2.31093 
2.28417 
2.36857 
2.48717 
2.33666 
2.53603 
2.38045 
2.30862 
2.27922 
2.35996 
3.6946 
2.39669 
2.40534 
2.27538 
2.34863 
3.71022 
3.75572 
3.7668 
2.28376 
2.31472 
2.4009 
2.31908 
2.33868 
2.31202 
3.71946 
3.76579 
2.21163 
2.33611 
2.41834 
2.43278 
3.76105 
2.42329 
3.75704 
2.36755 
3.74714 
2.38036 
2.35444 
3.75722 
2.46045 
2.38072 
2.33377 
2.31613 
3.71818 
2.40547 
2.34702 
2.42958 
2.42993 
2.24022 
2.46036 
2.28531 
2.31208 
3.66847 
2.27363 
2.32196 
3.69384 
3.73233 
2.30705 
2.42206 
2.37323 
3.75021 
2.29946 
3.69484 
3.74184 
3.76256 
3.76693 
2.25213 
3.77064 
2.32337 
2.41402 
2.41264 
2.33866 
2.40972 
2.3753 
2.33543 
2.23546 
3.75562 
3.70236 
2.37551 
3.70585 
2.44546 
3.75765 
2.35635 
2.34756 
3.72915 
2.2816 
3.74977 
2.29821 
2.35986 
3.72542 
3.73529 
2.23705 
3.76293 
2.4632 
3.72616 
2.57127 
3.66522 
2.36557 
3.70566 
2.40024 
2.36728 
3.69385 
2.38989 
2.3333 
2.42287 
2.29212 
3.73734 
3.71593 
2.35008 
2.30887 
2.29504 
3.7574 
2.29486 
3.70518 
2.33118 
3.74215 
2.43445 
2.42945 
2.32232 
2.42266 
2.25048 
3.70399 
3.76202 
2.33515 
3.75659 
2.39107 
2.28611 
3.70585 
2.37114 
3.71798 
2.38457 
2.32579 
2.28712 
3.75668 
2.33515 
2.33609 
2.47861 
2.36754 
2.41458 
2.31647 
3.70388 
2.47099 
2.37023 
2.35315 
2.36604 
3.68634 
2.30404 
2.4027 
2.3681 
2.33142 
3.75447 
2.41985 
2.36205 
2.38257 
2.35981 
2.39818 
3.74192 
2.27987 
2.42335 
2.39666 
2.33175 
3.76271 
2.29888 
2.26462 
3.73398 
2.3099 
2.35953 
2.41037 
2.35228 
3.7645 
2.29975 
3.75174 
2.36892 
2.46504 
2.27878 
2.4222 
2.17925 
2.40438 
3.72657 
2.43423 
3.75768 
2.54371 
3.75598 
2.29819 
2.32699 
2.34879 
3.70231 
2.33548 
3.75775 
2.33382 
2.25704 
3.7587 
3.70537 
2.2751 
3.73585 
2.35699 
2.34983 
3.73885 
2.35086 
3.76312 
3.68065 
2.31585 
2.44317 
3.73169 
2.25536 
2.33418 
2.20525 
3.7422 
3.72267 
2.27155 
2.46847 
2.37994 
3.74772 
2.45092 
2.34017 
3.70637 
2.1815 
2.38167 
2.40164 
3.71011 
2.3338 
3.70682 
2.30742 
2.33294 
2.489 
3.76393 
2.35114 
2.42924 
2.36956 
2.32681 
3.72746 
3.73154 
3.7671 
2.32888 
2.49696 
3.66245 
2.42413 
3.73354 
2.27539 
3.71338 
2.37625 
3.74217 
2.31332 
2.33018 
2.37651 
2.31627 
2.40199 
2.2958 
2.43146 
3.76142 
3.75457 
2.44986 
2.25137 
2.32397 
2.32705 
3.75118 
3.74523 
2.18358 
2.44787 
3.75251 
2.3857 
2.3014 
2.40677 
2.30576 
3.69884 
2.39677 
2.3283 
3.73177 
2.39423 
3.75875 
2.41609 
2.39359 
2.37407 
3.73951 
3.76031 
3.7613 
2.34586 
2.26591 
2.4586 
2.34725 
3.76519 
2.23264 
2.23831 
2.36148 
3.7553 
2.42878 
2.34816 
2.34942 
3.66416 
3.76708 
3.76531 
2.26392 
2.22118 
2.42829 
2.3135 
3.65442 
3.7561 
2.46701 
2.33098 
3.77034 
3.73566 
2.29219 
3.67259 
2.37805 
2.33527 
2.47131 
2.27981 
2.28275 
3.75795 
2.29933 
3.74743 
2.39057 
3.76285 
2.4233 
3.73576 
2.4358 
3.73568 
2.35024 
2.36858 
2.30735 
2.47396 
3.74369 
2.39307 
2.18598 
3.71713 
3.74772 
3.74011 
3.75739 
2.41212 
2.395 
2.43249 
2.34009 
3.73833 
3.75088 
2.33694 
3.75715 
2.26976 
2.37012 
3.76661 
2.3359 
2.44971 
2.29313 
3.75054 
2.45034 
2.25574 
2.39639 
2.39421 
2.36572 
2.34893 
3.73365 
2.28834 
3.75225 
2.33567 
3.69233 
2.40118 
2.4544 
3.75527 
2.27759 
2.37092 
2.49932 
3.76905 
2.34415 
2.41713 
2.29477 
2.27943 
3.76522 
2.32107 
2.36831 
3.76789 
2.29751 
2.34914 
2.3141 
3.72308 
2.46992 
2.41903 
2.18124 
2.39848 
2.36101 
2.33198 
3.6721 
2.30231 
2.38742 
3.75252 
2.24593 
3.73542 
2.41435 
2.26727 
2.32877 
3.70175 
2.3312 
2.40594 
2.31015 
2.41502 
3.75027 
2.28586 
2.34804 
2.34533 
2.29009 
2.40416 
2.3187 
2.35157 
2.29831 
2.27842 
2.3871 
2.2588 
3.67724 
2.31197 
3.73422 
2.34115 
3.75013 
2.36181 
3.75065 
2.24915 
3.72461 
2.37458 
2.38918 
2.36656 
2.34657 
2.28106 
2.48467 
2.38668 
2.42321 
2.45082 
2.41586 
2.33964 
3.75399 
2.27087 
3.75731 
2.28374 
2.3492 
2.37064 
3.72607 
2.36886 
2.33555 
2.41874 
2.2504 
2.38358 
3.73776 
3.7267 
2.32878 
2.32556 
2.34637 
3.72486 
2.25258 
3.73003 
2.43218 
3.72104 
3.77105 
2.4666 
2.29572 
2.27986 
3.66845 
2.41607 
3.7085 
2.42263 
2.3304 
2.39699 
2.26968 
3.73853 
2.23079 
2.38174 
2.37484 
3.7522 
2.52599 
2.32509 
2.33908 
2.40658 
3.76525 
3.69553 
2.31571 
2.41397 
2.32418 
2.15262 
3.76905 
3.75848 
2.41999 
2.39745 
2.42753 
2.33818 
3.66313 
3.76053 
2.45251 
3.6928 
3.74159 
2.3614 
2.34749 
2.30979 
2.36957 
2.3867 
2.31609 
2.3754 
3.76374 
3.65214 
3.73299 
2.36821 
2.43975 
2.27938 
2.48122 
2.48905 
2.3822 
2.37049 
2.43834 
2.32858 
2.25358 
3.76788 
2.397 
2.40563 
2.31516 
3.66412 
2.40217 
2.31861 
3.72311 
2.30741 
3.73612 
3.74648 
2.45604 
3.75388 
3.72177 
2.2359 
2.30787 
2.2797 
2.34828 
2.38379 
2.35725 
2.36057 
3.74956 
3.71451 
3.74987 
2.40984 
3.76193 
2.26207 
2.23154 
3.70908 
2.40096 
3.76678 
3.75507 
3.77029 
2.36563 
3.76171 
2.22593 
3.70245 
2.33701 
3.70961 
2.30166 
2.50398 
3.73579 
2.3188 
2.23949 
2.32171 
2.37258 
2.40299 
2.35055 
2.3056 
3.71336 
2.38637 
2.33617 
2.38895 
2.44058 
2.33541 
3.76741 
2.34703 
2.28076 
2.38712 
2.32757 
2.40721 
2.50317 
2.41977 
2.32199 
2.27351 
2.35939 
2.29 
3.74228 
3.7189 
3.72647 
2.26005 
2.37505 
2.34029 
2.34108 
3.76871 
2.40436 
2.34839 
2.30595 
2.34114 
2.26947 
3.72141 
2.3816 
2.41717 
2.35477 
3.74244 
2.20921 
3.69195 
2.35408 
2.37151 
2.27429 
2.39155 
2.44411 
2.34024 
2.45326 
3.75797 
2.40956 
3.7481 
2.37725 
3.71338 
2.38194 
2.30427 
2.43782 
2.38601 
2.33612 
2.34612 
3.75189 
2.28275 
2.29238 
2.49067 
2.34347 
3.66499 
3.72584 
3.73107 
2.42285 
3.74107 
2.33844 
2.29049 
3.72323 
2.34387 
2.43451 
3.7419 
3.70823 
2.3314 
2.28023 
2.42759 
3.75462 
2.38879 
2.34694 
2.3876 
2.27334 
3.76806 
3.74934 
2.33869 
2.38923 
2.28853 
2.38037 
3.76797 
2.23523 
2.25432 
2.42243 
2.30356 
3.76855 
2.3793 
3.71548 
2.42007 
2.36914 
2.29483 
3.71269 
3.74087 
2.36651 
2.40762 
2.46254 
2.42234 
2.30466 
3.75771 
2.3841 
2.36824 
2.39576 
3.7677 
3.75951 
2.33208 
2.4658 
2.31638 
2.35792 
3.67168 
3.76656 
3.75395 
2.46555 
2.36909 
2.28697 
2.29058 
3.75882 
3.75111 
2.31582 
2.36593 
2.37395 
2.36815 
2.36611 
2.28932 
2.36447 
2.42086 
3.75869 
2.44295 
3.67332 
2.22963 
3.73239 
2.3778 
2.4247 
3.74302 
3.68214 
3.75249 
2.47724 
2.37446 
2.35089 
3.70633 
2.38158 
3.74024 
3.74632 
2.30508 
2.38707 
3.73593 
2.293 
2.35236 
3.75662 
3.74484 
2.28877 
3.73626 
2.41084 
2.2824 
3.76795 
2.29185 
3.72887 
3.74099 
2.30747 
2.32959 
2.42179 
2.31004 
2.39336 
2.44573 
2.49337 
2.45558 
2.30929 
2.47693 
2.38531 
2.28438 
2.30757 
2.34877 
3.76269 
2.4755 
2.39195 
3.72883 
2.27332 
2.37636 
3.69658 
2.36636 
2.29992 
2.39872 
2.36105 
2.50317 
2.37183 
3.75156 
3.70285 
3.66582 
2.41626 
3.68376 
2.33762 
2.24179 
3.73881 
2.34391 
3.66783 
3.76351 
2.26235 
3.69416 
3.76825 
2.35589 
2.32731 
3.74307 
2.45928 
3.76334 
3.67358 
2.32176 
2.41684 
3.73149 
2.36835 
2.36656 
3.75041 
3.73325 
2.4295 
2.4582 
2.31392 
2.3493 
2.4068 
2.32207 
2.40083 
2.30305 
3.76943 
2.39191 
3.76757 
2.27419 
3.72627 
2.51577 
2.34858 
3.71934 
2.3276 
2.32939 
2.51173 
2.36388 
2.32205 
2.24184 
3.72163 
2.47773 
2.37648 
3.76198 
2.44852 
2.44604 
2.31111 
2.37226 
3.72642 
2.39648 
2.36081 
2.25985 
2.39184 
2.25424 
2.34396 
3.67575 
2.42637 
2.35592 
3.75849 
2.26855 
3.75629 
2.39359 
2.35058 
2.35176 
3.75877 
3.74756 
3.73251 
2.36481 
2.31071 
2.32965 
2.27558 
3.75867 
2.43026 
3.73775 
2.31988 
2.36414 
2.37182 
3.71433 
2.41989 
3.7403 
2.25709 
2.46372 
2.27544 
3.73994 
2.40643 
3.73015 
2.28223 
2.36209 
2.28327 
3.74341 
2.35975 
3.75541 
2.27138 
2.34464 
2.3205 
2.37127 
3.74845 
3.73405 
2.38036 
3.71943 
2.39946 
2.33045 
2.31615 
2.35004 
2.33533 
2.39634 
2.32912 
3.76629 
2.36031 
2.34011 
2.40908 
3.76995 
2.21785 
3.76974 
2.39688 
2.35984 
3.72206 
2.35438 
3.76518 
2.46001 
3.71694 
2.38907 
2.33413 
2.40226 
2.34503 
3.75652 
2.37541 
2.40371 
2.27892 
3.75735 
2.41085 
2.4435 
2.40598 
2.39802 
2.36781 
3.76742 
3.69292 
2.18545 
3.7235 
2.37458 
3.75553 
2.28095 
3.72635 
3.70462 
2.32361 
3.73316 
2.24074 
2.31301 
2.38035 
2.2728 
2.36403 
2.37824 
2.38799 
2.25664 
3.71441 
3.71503 
2.34322 
2.39316 
3.71648 
2.35738 
2.37729 
2.37978 
3.72815 
2.29853 
3.77011 
3.75606 
3.7619 
3.69646 
2.26116 
2.25823 
3.72228 
2.30333 
2.25967 
2.34656 
3.69057 
2.36635 
3.75274 
3.74068 
2.32633 
3.72542 
3.71626 
2.47037 
2.37457 
3.7579 
2.33832 
3.73997 
2.25296 
3.75652 
2.33553 
3.75314 
3.76859 
2.35055 
3.7174 
2.30688 
2.2656 
2.31985 
3.76481 
2.36048 
3.76638 
2.56815 
2.26619 
2.42753 
2.3618 
2.40776 
3.76661 
3.74021 
2.3593 
3.67379 
2.32621 
2.31147 
2.46139 
2.32284 
2.33871 
2.33757 
2.46833 
3.74931 
2.33553 
3.71929 
3.68875 
2.34896 
3.73798 
2.25281 
2.39772 
2.27757 
2.34427 
3.66176 
2.3725 
2.30338 
3.74466 
2.2645 
2.36752 
3.70883 
3.70006 
2.35869 
2.31537 
2.31181 
2.30719 
2.35565 
2.31308 
2.36245 
2.4566 
3.70196 
2.42745 
2.48207 
2.32667 
2.40907 
2.35656 
2.34517 
3.73749 
3.73773 
2.30813 
2.34881 
2.34504 
2.3605 
2.40871 
2.34596 
2.45569 
2.50919 
2.27509 
2.36694 
3.72177 
2.35652 
3.72239 
3.72928 
2.45715 
2.26522 
2.26328 
2.39021 
2.34007 
3.7337 
2.35942 
2.34574 
2.29517 
3.75414 
2.33865 
2.33837 
2.38064 
2.36755 
2.24804 
2.29645 
2.34283 
3.76863 
3.75986 
2.35467 
2.36978 
2.34913 
2.30164 
3.74646 
3.70958 
2.36063 
2.44378 
3.71657 
2.36204 
2.43322 
2.37736 
2.35161 
3.72113 
2.35295 
3.74104 
2.32505 
2.32986 
2.42185 
2.33227 
2.39685 
2.33087 
2.39371 
3.76695 
2.31908 
2.29578 
2.27169 
2.4525 
3.74409 
2.22895 
2.34102 
2.3535 
3.73032 
2.41346 
3.66503 
2.34322 
3.7645 
2.34048 
2.31436 
3.71614 
3.76389 
2.33805 
2.34243 
3.76941 
2.36384 
2.34114 
2.24839 
3.70833 
2.30873 
2.42733 
2.39508 
3.76532 
2.32356 
2.28702 
3.76047 
2.38691 
2.44695 
2.46313 
2.35269 
2.35751 
2.32615 
2.28427 
2.39381 
3.69509 
3.75533 
2.3305 
2.27547 
3.70665 
3.73926 
2.27425 
3.77073 
2.3882 
2.27415 
2.29945 
2.37543 
2.35058 
2.4726 
2.39427 
3.72874 
2.32456 
2.27683 
2.41667 
2.32672 
2.37607 
2.36469 
2.3202 
2.38128 
3.72988 
3.68951 
2.40686 
2.41433 
3.74283 
2.46195 
2.40516 
2.42984 
2.42002 
3.70173 
2.31822 
3.70432 
2.24418 
3.756 
2.3957 
2.35623 
2.39053 
2.4015 
2.23364 
3.72228 
3.75466 
2.45424 
3.76363 
2.34281 
2.4122 
2.34467 
2.47084 
2.20284 
2.42824 
2.38778 
2.34501 
3.72162 
2.28565 
2.39288 
2.4584 
2.33584 
2.50143 
2.24314 
2.50974 
2.47073 
2.34447 
3.76864 
2.38592 
3.76103 
3.74495 
3.76057 
2.41627 
3.74208 
2.24513 
2.26977 
3.76173 
2.38441 
2.38826 
2.32621 
2.38155 
2.3336 
2.47149 
3.75114 
2.28025 
2.3475 
3.75086 
2.42792 
3.75665 
2.33291 
2.39428 
3.72928 
3.76974 
2.25869 
3.72004 
2.27826 
3.69386 
2.41705 
2.32932 
2.31892 
3.7669 
2.21266 
2.4753 
3.72202 
3.74323 
2.34406 
2.46011 
2.37236 
2.32862 
3.76661 
2.3993 
3.71498 
2.3703 
2.36408 
2.34746 
2.41 
2.31384 
2.45592 
3.72385 
2.33351 
3.68494 
2.3004 
3.74065 
3.7237 
2.27148 
2.44316 
2.33753 
3.77004 
2.31654 
2.35477 
2.40822 
3.67609 
2.35191 
3.69951 
2.31155 
2.25415 
2.44416 
3.72957 
2.18496 
2.39683 
2.34893 
3.74988 
2.37165 
2.34812 
2.39924 
2.25848 
3.75924 
3.6665 
3.73327 
2.37889 
2.30508 
3.69605 
3.76678 
3.74374 
2.32094 
3.74138 
2.37379 
3.71365 
2.39748 
2.37927 
3.75533 
3.76397 
2.26813 
2.40487 
3.73756 
2.3264 
3.73191 
2.31953 
2.42532 
2.3734 
2.35423 
2.4054 
2.2727 
2.30306 
3.74301 
3.66703 
2.3411 
2.34971 
3.72523 
2.29198 
2.42571 
2.256 
2.47894 
2.29241 
2.45747 
2.28657 
2.37309 
3.73813 
3.74202 
2.33164 
2.38433 
2.34027 
2.29768 
3.72653 
3.7497 
2.38071 
3.76723 
2.40822 
2.38919 
2.39277 
2.40525 
2.31611 
2.27301 
2.35956 
3.75224 
3.7542 
2.31257 
2.3628 
3.72201 
2.2943 
3.73926 
3.71973 
2.30475 
3.74055 
2.40828 
3.7335 
2.33379 
2.40851 
3.7638 
2.44934 
2.41072 
3.76609 
2.50542 
2.39598 
2.42553 
3.744 
2.32062 
3.74142 
2.23365 
2.3005 
3.76418 
2.25408 
3.75705 
3.75767 
2.39859 
3.7449 
2.38766 
2.28933 
3.73428 
2.3312 
2.31094 
2.48943 
2.40394 
2.43676 
2.42231 
2.37096 
3.74219 
2.35305 
2.32747 
2.37523 
2.35134 
2.35271 
3.72586 
2.43723 
3.76558 
2.3571 
3.77116 
2.33504 
2.31735 
3.74574 
2.36868 
3.747 
3.73782 
2.33591 
2.36572 
2.3765 
2.39963 
2.33044 
2.32469 
2.31639 
2.50021 
3.7559 
2.27618 
2.31182 
2.41762 
2.45456 
3.74319 
2.29004 
3.74049 
3.72024 
2.34622 
2.35266 
2.25044 
3.66309 
3.75522 
3.76002 
2.50266 
2.38066 
2.30255 
2.28969 
3.76716 
3.74578 
2.41585 
3.68424 
2.21587 
2.30418 
2.30295 
2.56469 
2.31381 
2.33531 
2.38824 
3.70144 
3.74992 
3.7146 
2.34191 
2.2559 
3.75792 
2.47498 
3.69867 
2.35624 
2.38417 
2.29591 
2.32451 
2.41782 
2.22551 
2.44645 
2.32898 
2.3141 
2.38659 
2.41177 
2.37515 
2.3413 
2.32487 
2.29506 
3.75076 
2.28943 
2.37428 
2.31713 
3.73459 
2.3002 
3.69089 
2.37494 
3.74824 
2.41681 
2.31879 
2.37895 
3.70771 
2.40665 
2.36275 
3.75527 
2.26664 
3.72891 
2.42186 
2.49407 
2.35588 
3.7654 
2.40612 
2.41295 
2.29471 
2.22671 
3.7661 
2.3378 
2.36348 
3.69769 
2.32055 
2.36441 
3.76741 
2.3105 
2.39756 
3.73254 
2.43666 
2.31268 
2.28033 
3.7266 
2.28462 
2.27515 
3.75081 
2.36924 
3.71168 
2.2395 
2.3864 
2.34311 
2.29996 
2.34346 
2.28712 
2.3604 
2.40747 
2.41318 
3.75855 
2.26913 
3.76804 
2.32364 
2.26158 
3.68181 
2.38816 
3.76709 
2.31821 
2.39245 
3.71705 
2.21025 
2.44252 
2.43729 
3.71258 
2.35721 
3.72401 
3.65974 
3.73487 
2.36207 
3.75769 
2.32854 
2.34142 
2.34383 
3.7351 
2.26207 
3.70194 
2.36747 
2.41507 
2.42145 
2.44291 
2.25571 
3.73463 
2.42291 
2.37171 
3.75245 
2.31718 
3.75316 
2.29999 
3.76738 
2.29174 
3.69341 
2.35879 
3.69232 
2.30818 
2.46393 
2.33313 
2.30583 
2.44738 
2.4483 
2.45761 
2.32597 
3.73695 
3.75232 
3.757 
2.30453 
3.74026 
2.35107 
3.66749 
2.3172 
2.37275 
3.70217 
2.27786 
3.76624 
2.40176 
2.34942 
2.40497 
3.74279 
2.3476 
2.42087 
2.39677 
2.41082 
3.75028 
2.43681 
2.17981 
3.75028 
2.29944 
2.37919 
3.70423 
3.7594 
2.33033 
3.69288 
2.33887 
2.31675 
3.77001 
2.36856 
3.71612 
3.73041 
2.2488 
2.37624 
2.30986 
3.66758 
2.40544 
2.37481 
3.74939 
2.3195 
3.6364 
2.32824 
2.259 
3.76447 
3.76294 
3.77067 
3.74251 
2.25966 
2.37328 
2.38588 
2.37366 
3.75625 
2.26802 
2.37635 
2.37077 
2.3776 
3.75045 
3.75023 
2.28785 
2.29274 
3.71451 
2.38524 
2.37849 
3.73019 
3.70853 
2.33847 
3.70852 
2.43653 
2.25724 
2.3509 
3.76832 
3.74393 
3.75354 
2.26301 
3.76391 
2.23058 
2.34089 
2.3353 
3.74231 
3.76868 
2.38499 
2.37072 
2.46995 
2.20576 
3.73594 
3.69857 
2.43218 
2.30741 
2.28283 
2.49055 
3.76774 
2.26079 
3.71353 
2.36157 
2.31929 
2.39533 
3.75687 
2.23853 
3.75308 
2.38614 
2.32548 
2.34778 
3.74792 
3.74234 
2.37767 
3.72549 
2.30255 
2.2958 
2.30159 
2.38446 
2.50179 
2.35093 
2.30826 
3.75722 
3.76712 
3.68242 
2.44443 
3.75181 
2.21459 
2.26378 
2.36837 
3.69417 
3.73255 
3.76287 
2.29814 
2.30509 
2.35607 
2.3453 
3.69557 
2.32346 
3.72006 
2.40519 
2.38184 
2.2898 
3.67135 
2.24833 
2.30595 
2.4336 
2.34205 
3.70323 
2.35129 
2.28376 
2.24375 
2.41839 
2.28041 
3.72902 
2.33482 
2.36494 
2.34718 
2.29991 
2.3631 
2.29612 
2.36216 
3.74325 
2.46002 
3.76821 
2.32296 
2.41646 
2.47598 
2.33389 
3.73744 
3.71721 
2.28934 
3.68125 
2.36141 
2.35314 
2.35337 
2.32575 
2.39282 
2.33498 
3.7137 
2.32349 
3.72521 
2.34197 
2.4388 
2.34144 
2.38808 
2.30077 
2.47749 
2.36552 
3.77107 
3.76704 
2.47224 
3.75364 
2.23463 
2.35506 
2.43866 
2.2665 
2.35041 
2.47797 
2.38642 
3.70819 
3.71567 
2.44506 
2.20255 
2.32556 
2.24511 
3.76062 
3.75602 
3.76749 
3.75337 
2.27844 
2.34476 
2.45819 
2.27888 
3.77018 
3.73764 
2.36098 
3.75779 
2.29334 
2.45427 
2.35738 
3.77077 
2.45067 
2.24298 
2.36236 
3.76445 
2.39796 
3.75728 
3.75588 
3.72364 
3.76079 
2.28915 
2.30281 
3.76957 
2.28569 
3.76803 
2.38863 
3.75015 
2.32393 
3.71921 
2.42809 
2.31856 
2.30353 
2.41828 
3.70862 
2.50574 
2.30879 
2.50691 
2.39284 
2.40246 
2.34686 
2.47031 
2.19993 
3.72038 
2.32234 
2.32009 
3.69137 
2.34588 
3.69881 
2.36477 
2.27686 
3.76305 
2.35714 
2.3466 
3.73108 
3.74851 
3.70278 
2.4307 
3.70936 
3.75558 
2.2372 
3.76532 
2.38566 
2.33865 
3.74866 
2.52165 
3.71532 
2.33802 
2.2798 
2.42362 
3.72246 
3.76374 
2.31809 
2.30688 
3.76776 
2.38916 
3.76527 
2.29665 
2.40762 
3.75679 
2.3127 
2.4936 
2.342 
3.76263 
2.34394 
3.7232 
2.32384 
2.33921 
2.4151 
3.76921 
2.3577 
3.74294 
2.24966 
3.72554 
2.28978 
2.41871 
3.76561 
2.3999 
3.76927 
2.2924 
2.33574 
3.75469 
2.30251 
2.45826 
2.39203 
2.43501 
2.35222 
2.32007 
2.3957 
2.48246 
2.37471 
2.3474 
3.73269 
2.43212 
2.41662 
2.40214 
3.67978 
2.40479 
2.30814 