ITEM: TIMESTEP
100
ITEM: NUMBER OF ENTRIES
106245
ITEM: BOX BOUNDS pp pp pp
0 108.62
0 108.62
0 54.31
ITEM: ENTRIES c_pairDist 
3.74037 
2.25781 
2.39796 
3.68549 
3.75185 
2.32132 
3.72939 
2.49729 
2.33402 
3.56564 
2.36858 
2.36698 
2.51976 
3.7538 
2.32186 
2.33369 
2.38782 
2.35314 
2.38275 
3.66801 
2.43489 
2.28636 
3.69757 
2.48315 
2.35858 
2.34405 
2.39569 
3.71867 
3.71925 
3.76581 
3.73331 
2.3215 
2.31485 
2.35803 
2.33177 
3.73791 
3.70522 
2.35275 
3.62738 
3.64531 
2.2028 
3.67227 
2.30593 
2.38173 
2.41315 
3.73118 
2.37395 
3.68542 
2.30275 
3.74958 
3.7483 
2.2525 
3.69701 
2.30204 
2.33636 
3.74851 
2.37701 
3.73276 
2.46065 
3.72373 
2.26736 
2.29859 
2.33493 
3.74882 
3.74004 
2.46431 
3.73462 
3.67268 
2.38331 
3.74673 
2.38667 
2.32148 
2.43249 
3.75721 
3.68647 
2.29863 
3.63314 
2.39845 
3.71195 
3.74126 
2.386 
2.3571 
2.27355 
3.75395 
2.40088 
2.47921 
3.6957 
2.42594 
2.29469 
2.29656 
3.74283 
3.75958 
3.70769 
3.70336 
2.29577 
2.33102 
2.40614 
2.41718 
3.73162 
2.42116 
2.36382 
3.74348 
3.74346 
2.39367 
2.27054 
3.74272 
3.71956 
2.31376 
3.72618 
2.46476 
2.3014 
3.76245 
3.75884 
2.22519 
2.28846 
2.33227 
3.76634 
2.40025 
2.36349 
2.31495 
3.74425 
2.36372 
2.36217 
2.39653 
2.39411 
2.35599 
3.67483 
3.69852 
2.31167 
2.2653 
2.37074 
2.44934 
2.37798 
3.7592 
3.67566 
2.35926 
2.32488 
2.31526 
3.73704 
3.72222 
2.35125 
2.37971 
3.66136 
3.76687 
2.3349 
3.75244 
3.60793 
2.26925 
2.25662 
3.77064 
2.3363 
2.31492 
3.73305 
3.73988 
3.72969 
3.76439 
2.46934 
2.41843 
2.34535 
2.404 
3.74896 
3.75305 
3.75475 
2.34234 
2.34419 
3.74451 
3.63289 
2.28048 
2.44902 
2.33324 
3.73788 
2.37723 
2.42496 
2.34284 
2.48942 
3.65322 
2.4031 
2.30834 
3.67802 
3.74301 
2.29084 
2.40558 
2.44478 
3.72447 
3.76934 
2.37692 
3.73912 
2.33691 
2.32483 
3.56194 
2.3929 
2.39649 
3.66768 
2.33112 
3.71674 
2.30225 
3.74785 
2.30067 
2.31437 
2.3384 
2.43957 
3.70418 
3.71611 
2.29722 
3.77046 
2.37398 
2.29905 
3.68014 
3.68888 
3.63687 
3.76618 
2.27072 
2.36495 
2.35016 
3.75989 
2.27124 
2.32914 
2.3045 
2.3486 
3.77064 
3.74539 
3.76948 
2.40961 
3.74354 
2.31828 
3.763 
2.22553 
2.43014 
3.68474 
3.68115 
3.74024 
2.33468 
3.68526 
2.31045 
2.26556 
2.45157 
3.69495 
2.28021 
3.70207 
2.34121 
2.34672 
3.74691 
3.71599 
2.39851 
2.26774 
2.30424 
2.30533 
3.72265 
3.7101 
2.41053 
2.33117 
3.71262 
3.72972 
2.34348 
2.40906 
2.29169 
2.2964 
3.68408 
3.71846 
2.24467 
3.69305 
2.33546 
2.38281 
3.61402 
2.31426 
3.74435 
3.75759 
2.22753 
2.41252 
3.68799 
2.3161 
2.2936 
2.29576 
2.38243 
2.327 
3.73016 
2.41335 
3.752 
2.31407 
2.43128 
2.41482 
2.32291 
2.46663 
2.36948 
2.35784 
2.33234 
2.42568 
2.33163 
3.75107 
3.75162 
3.70029 
3.70209 
3.76682 
2.36132 
2.29481 
2.38492 
2.38623 
3.74324 
2.34807 
3.70087 
2.37767 
2.30784 
2.47212 
2.40324 
3.73598 
3.69975 
2.34417 
2.39406 
2.3551 
3.56233 
3.71839 
2.25129 
3.74559 
2.21999 
2.38077 
2.4112 
2.30902 
2.3857 
2.29846 
3.60375 
3.72074 
2.29787 
2.41074 
3.68146 
2.43866 
2.28943 
3.72991 
2.34991 
2.30823 
3.76467 
3.72756 
2.43879 
2.43081 
3.7497 
3.6056 
2.45427 
2.24469 
2.42424 
2.40366 
2.36829 
2.39902 
2.36045 
2.41273 
2.41396 
2.39011 
3.66458 
2.37822 
2.32992 
2.27869 
2.3467 
2.41169 
2.43869 
2.4059 
3.77101 
3.60613 
2.33222 
3.69845 
2.40613 
3.6265 
2.26356 
3.76404 
2.41647 
3.76896 
3.72593 
3.76693 
3.7574 
2.37174 
3.73061 
2.27274 
3.68314 
3.65888 
2.32935 
2.30528 
2.46123 
2.29812 
2.42987 
2.33796 
2.4655 
2.43142 
3.60255 
2.34152 
3.75176 
2.43768 
2.39808 
2.32278 
3.73648 
3.7709 
3.72288 
2.38761 
3.73303 
2.37882 
2.27345 
2.4053 
3.74324 
3.74988 
3.63682 
2.27419 
2.36333 
2.34248 
2.35902 
3.72731 
3.73921 
3.6985 
2.35076 
3.70384 
2.42019 
3.73569 
3.75929 
3.71966 
2.27696 
2.38303 
2.3266 
2.36464 
3.76781 
3.71139 
2.53264 
2.43314 
2.42729 
2.39467 
2.32566 
2.4172 
3.75927 
2.37057 
3.76929 
2.37453 
2.38246 
2.36035 
3.73389 
3.67195 
3.75938 
2.27999 
3.74941 
3.75043 
2.58283 
2.29126 
3.69017 
2.30166 
2.38853 
2.44627 
2.28532 
2.45165 
2.3469 
2.33133 
2.27869 
3.68688 
2.36822 
2.36021 
3.73276 
3.66123 
2.43316 
3.65083 
2.28814 
2.24897 
2.34828 
3.76497 
3.74787 
3.76046 
2.33027 
2.34171 
3.76232 
2.36487 
2.47575 
2.33168 
3.75081 
2.22077 
2.24375 
3.75676 
2.31892 
2.46378 
3.73402 
3.74187 
2.35899 
2.29279 
2.36939 
3.60412 
2.35518 
2.39293 
3.74232 
3.724 
3.73819 
2.35914 
2.2859 
2.40856 
2.42655 
2.29472 
2.39074 
3.72001 
3.76088 
3.72649 
3.74016 
2.38248 
2.33567 
2.32719 
2.30313 
3.75926 
3.76251 
3.73923 
2.34237 
2.35709 
3.76197 
3.75944 
2.28787 
2.29811 
2.35443 
2.40227 
3.71304 
2.24059 
2.25305 
3.74932 
3.71925 
2.48929 
2.27867 
3.74851 
2.44896 
2.42517 
3.72456 
3.73299 
2.41771 
2.39711 
3.7034 
2.25856 
3.74709 
3.74291 
3.74568 
2.38258 
2.314 
3.74226 
3.76492 
3.77014 
2.23755 
2.29757 
3.71499 
2.40865 
2.41041 
2.37083 
3.75842 
2.32312 
2.31773 
2.27321 
3.73622 
3.75476 
2.36909 
3.76863 
2.37065 
2.27478 
3.75447 
2.44231 
3.76763 
2.35377 
2.38957 
3.73359 
2.35674 
2.37225 
2.27939 
2.36424 
2.32675 
3.60434 
3.75749 
3.74098 
3.72288 
2.39831 
2.34034 
3.72149 
3.60799 
3.5807 
2.34399 
2.3963 
2.41511 
2.38418 
3.74042 
2.38947 
3.75792 
3.69715 
2.227 
3.74939 
2.31034 
3.76975 
3.70728 
3.72528 
2.36133 
2.37832 
2.31284 
2.40452 
3.76063 
3.70682 
2.52259 
2.41534 
2.29441 
3.71777 
3.7444 
2.38416 
3.70703 
2.35215 
2.36565 
2.31244 
3.75762 
2.41675 
2.33397 
3.75032 
2.3211 
3.74175 
3.73765 
2.29643 
2.44356 
2.39133 
2.33547 
3.73521 
3.75817 
2.27289 
3.76042 
2.37399 
2.38506 
3.69398 
2.3292 
3.69396 
2.31372 
2.38109 
2.43758 
2.31204 
2.31377 
2.33273 
2.47843 
3.69005 
3.72498 
2.23969 
3.73661 
2.31271 
2.32844 
2.24129 
3.70572 
3.65451 
3.62255 
2.27468 
2.37205 
3.73924 
3.74738 
2.32582 
2.29922 
2.41087 
2.26724 
2.39391 
2.32655 
2.31902 
2.48511 
2.29593 
2.39701 
3.5957 
3.75937 
2.36239 
2.30385 
3.707 
2.4234 
2.38629 
2.51961 
2.26312 
3.68382 
2.44787 
3.70886 
2.35792 
2.16669 
2.44156 
3.67733 
2.37525 
2.42414 
2.36644 
2.30884 
3.74831 
3.75824 
3.74121 
2.39587 
2.44009 
2.29026 
2.31004 
3.71904 
3.67794 
2.34147 
3.76538 
2.25523 
2.54444 
2.3588 
3.71234 
2.40321 
3.61904 
2.34319 
3.71165 
3.70515 
2.40777 
3.69043 
3.75906 
2.24797 
2.29018 
2.40944 
2.37733 
3.69754 
2.41138 
2.35586 
3.69769 
2.22114 
3.74704 
2.37491 
3.70159 
2.29024 
3.75558 
2.34763 
2.3477 
2.25386 
3.73427 
2.29976 
3.75214 
3.73421 
2.35117 
3.74749 
2.3955 
3.73592 
3.67708 
3.68816 
2.36801 
3.68844 
2.32716 
2.38051 
2.32031 
2.41442 
3.67007 
3.75987 
2.34111 
3.67087 
3.7577 
2.48307 
3.70791 
3.67922 
3.73873 
3.76054 
3.74377 
2.37106 
2.35622 
3.72322 
2.47095 
2.24199 
3.77031 
3.77036 
3.75723 
2.28218 
3.71931 
2.35541 
3.72095 
2.33365 
2.36865 
3.75316 
3.75635 
2.324 
3.70746 
2.3531 
2.35912 
2.35669 
3.70812 
3.73617 
2.36484 
3.75488 
2.36535 
2.37286 
3.67582 
2.35172 
2.27156 
2.39217 
3.72793 
3.72876 
3.66909 
2.34392 
2.3202 
3.74311 
2.41556 
2.29136 
3.76593 
3.75291 
2.26039 
2.44564 
2.32088 
2.31676 
3.68406 
3.71736 
3.73749 
3.76817 
2.33288 
2.42248 
2.4182 
2.42106 
3.74203 
2.35142 
2.45329 
2.29424 
2.34692 
2.39942 
2.35628 
2.37649 
3.75529 
2.37951 
2.32274 
2.35616 
2.30536 
2.47939 
3.68074 
3.74469 
3.73424 
2.37875 
2.34096 
2.38507 
2.34015 
3.74386 
2.24816 
2.38991 
2.52976 
2.36692 
3.75283 
2.41779 
2.3279 
2.30991 
2.27387 
3.68224 
3.72058 
3.7658 
2.3333 
2.30674 
2.48352 
2.41892 
3.68343 
2.37018 
2.28885 
3.55492 
3.63591 
2.4238 
2.43619 
2.33477 
2.3014 
3.7559 
2.319 
2.43971 
3.74543 
2.37707 
3.73472 
2.35848 
3.7334 
2.35104 
2.39701 
2.25862 
2.47657 
2.31621 
2.26127 
3.74798 
3.68144 
3.74598 
2.32732 
2.38918 
3.76691 
2.24334 
2.36542 
3.59584 
2.39333 
2.30911 
3.67064 
3.68626 
3.74324 
2.3238 
2.24562 
2.35635 
2.29929 
3.76101 
2.31986 
2.42478 
3.75963 
2.35916 
2.34632 
3.73196 
3.70345 
2.3801 
2.31257 
3.74518 
2.36166 
2.42379 
3.76474 
2.34975 
2.43504 
2.32102 
2.31923 
3.74859 
2.48462 
2.37949 
3.69963 
3.69957 
3.76997 
3.72185 
2.24056 
2.35341 
2.35342 
2.29909 
3.7046 
3.71758 
2.4079 
2.18921 
2.34185 
3.65976 
2.36165 
3.69046 
3.59433 
2.28898 
2.36676 
3.73426 
3.74362 
2.39105 
2.51733 
2.35394 
2.36314 
2.32789 
2.33689 
3.70326 
2.48753 
2.39134 
2.37923 
3.73281 
2.39947 
2.38547 
2.41484 
2.45516 
2.34967 
2.3068 
2.37267 
2.41166 
2.2906 
2.3523 
2.28479 
3.72084 
2.33462 
3.66025 
3.73344 
2.41429 
2.41119 
3.76627 
2.35474 
2.43752 
3.72304 
2.31469 
2.2393 
2.30561 
2.33202 
2.3337 
2.3595 
3.68043 
2.35288 
2.50778 
2.43594 
2.26998 
2.33432 
2.38856 
2.37929 
2.5626 
3.71943 
2.36468 
2.3506 
3.74068 
2.28779 
2.47205 
2.36293 
2.37848 
2.26803 
2.21743 
3.67266 
3.71671 
2.38737 
2.3804 
3.76273 
3.75521 
2.36036 
2.33369 
2.36807 
2.31466 
3.75184 
3.73575 
2.42994 
2.31315 
3.69859 
3.69889 
2.31055 
3.67435 
2.24056 
2.34691 
2.39782 
3.75328 
2.28649 
2.26808 
3.77087 
3.73285 
2.37224 
3.70236 
2.27997 
2.33854 
2.4356 
2.3969 
3.74625 
2.21431 
2.30961 
3.76277 
2.33983 
3.7166 
3.64923 
3.67685 
2.27311 
2.34641 
3.74531 
2.4042 
2.42027 
3.73852 
2.3277 
2.37307 
2.3812 
2.41299 
3.7399 
3.73006 
3.61078 
2.28455 
2.4875 
2.37653 
2.35933 
3.75829 
2.36994 
2.39731 
3.61273 
2.39155 
3.76271 
2.36401 
3.68835 
2.35707 
2.29475 
3.76607 
2.34518 
2.33486 
3.7576 
3.68588 
3.74389 
2.2758 
2.27996 
2.353 
2.40548 
2.33395 
3.7406 
2.34444 
3.76912 
2.33341 
2.462 
3.73598 
3.76287 
3.678 
2.36075 
2.4242 
2.40954 
2.31186 
2.27775 
2.24748 
3.75163 
3.67965 
2.36084 
3.74283 
2.33087 
2.44361 
2.38304 
3.67117 
2.41751 
2.40807 
2.33479 
2.24014 
2.34616 
3.64056 
2.29843 
2.37609 
2.45521 
3.65936 
3.69293 
3.72892 
2.31321 
2.35082 
3.76479 
3.75501 
3.72179 
2.36164 
2.36709 
2.37878 
2.30894 
3.73003 
3.71815 
2.37191 
2.48087 
2.50761 
2.33068 
2.31631 
2.33721 
2.29312 
2.502 
3.70289 
2.25928 
3.76997 
2.36946 
3.75917 
2.37027 
2.41625 
2.32389 
2.28395 
2.44364 
2.42417 
3.75693 
2.29884 
2.43043 
2.42181 
2.37109 
3.75819 
2.32833 
2.32446 
2.28329 
2.36323 
3.77072 
2.4539 
2.31817 
2.36857 
2.32114 
3.74939 
3.73375 
2.48421 
3.76474 
2.3261 
2.36481 
2.35295 
2.32333 
2.50487 
2.3394 
2.35191 
2.28789 
2.43662 
2.4449 
2.28938 
3.75923 
3.69821 
2.33228 
2.38069 
2.36907 
2.35569 
2.40627 
2.41063 
3.66791 
2.36084 
2.33835 
2.42478 
2.3416 
2.34497 
2.35319 
2.37256 
2.35018 
3.732 
2.43106 
2.32223 
3.73449 
3.71589 
3.72817 
2.27826 
2.29928 
3.73272 
2.2857 
2.31848 
3.60173 
2.33058 
2.2914 
3.74774 
3.7568 
2.37513 
2.34203 
2.24814 
3.68061 
2.29303 
2.35709 
2.3592 
3.73606 
3.73579 
2.37091 
2.2567 
3.75796 
3.71121 
2.33122 
3.73896 
2.32235 
2.37995 
2.40295 
3.68273 
2.35224 
2.40313 
3.73329 
2.27759 
2.39834 
2.46988 
2.35331 
3.67608 
3.70616 
3.74425 
3.72115 
2.29436 
2.24273 
3.71317 
2.34784 
2.34161 
3.70773 
3.70724 
2.33477 
3.74105 
2.27689 
2.29175 
3.71593 
2.23076 
2.39931 
2.41117 
3.73975 
2.42156 
2.31879 
3.74108 
2.32233 
2.38107 
3.77057 
3.73838 
2.43478 
2.42018 
3.70804 
2.46295 
3.68263 
2.25978 
3.75161 
3.76111 
2.40832 
2.37439 
2.34514 
2.33302 
3.76413 
2.33176 
2.38671 
2.37231 
3.74823 
2.36257 
2.29763 
3.72327 
3.73935 
2.3153 
2.32091 
3.76268 
2.27458 
2.30412 
2.3555 
3.70862 
3.73518 
2.35126 
2.37347 
2.32569 
3.72965 
2.35722 
2.36343 
2.40013 
2.32902 
2.42765 
2.3717 
2.35503 
2.48955 
2.26582 
3.76186 
2.36296 
3.69379 
3.76356 
2.46709 
2.44278 
2.36275 
2.32591 
2.46555 
2.48838 
3.76314 
3.72091 
2.36902 
2.37567 
3.76885 
2.34233 
2.39096 
3.67338 
2.41833 
2.26146 
2.41159 
2.43039 
2.32688 
2.41273 
2.376 
2.34299 
2.25144 
2.41819 
2.2871 
2.39629 
3.75708 
2.30659 
3.7367 
2.36755 
3.72987 
3.64393 
2.30355 
3.69706 
2.30381 
3.72989 
2.4485 
3.70902 
2.31116 
3.71661 
2.36607 
2.35602 
3.76792 
2.34904 
2.34902 
3.68626 
2.37377 
3.75702 
3.72059 
2.41109 
3.64919 
2.23609 
3.71705 
3.70888 
2.41525 
2.385 
2.42533 
2.38014 
2.39823 
3.76453 
2.38085 
2.39171 
2.29275 
3.73338 
3.63748 
2.19467 
2.42895 
2.29637 
3.76075 
2.42479 
3.56179 
3.74103 
3.73506 
2.45887 
2.41248 
3.75091 
3.73648 
3.73604 
2.42124 
2.27011 
2.29286 
2.30234 
3.71215 
3.75606 
2.38347 
2.34293 
2.33539 
2.3571 
2.34331 
2.32874 
2.41041 
2.41232 
2.44488 
3.75903 
3.65908 
2.2221 
3.6864 
2.36112 
3.68563 
2.36156 
3.75745 
2.37742 
3.70308 
3.74593 
2.34087 
2.28777 
3.76934 
3.74302 
3.72708 
2.39429 
2.37459 
3.70466 
2.3271 
2.34268 
2.3152 
3.70506 
2.36188 
2.45904 
2.32731 
2.46494 
2.28313 
2.37058 
2.40926 
2.47491 
2.3981 
3.74425 
2.24768 
2.47219 
2.31655 
3.73008 
2.34241 
3.64797 
2.42047 
2.28958 
2.36727 
2.41435 
3.69788 
3.71216 
2.36047 
3.75399 
2.29646 
3.74969 
2.2747 
3.7687 
3.60099 
2.28331 
2.3172 
2.45257 
2.46804 
3.74946 
3.75887 
2.33861 
2.28147 
2.20144 
3.76896 
2.2633 
2.3351 
2.35629 
2.45194 
2.26246 
2.45594 
3.76051 
3.76944 
2.3086 
2.34729 
2.33855 
2.40225 
2.33782 
3.68601 
2.32023 
3.74083 
2.38061 
3.7485 
2.37789 
2.34796 
2.26089 
2.37197 
3.74768 
3.67452 
3.6604 
2.44436 
2.35183 
2.35377 
3.71547 
3.67406 
2.43698 
3.63001 
2.2909 
3.68391 
2.39315 
3.7658 
2.44596 
2.37277 
2.31301 
2.38187 
3.709 
2.31339 
2.3946 
2.43773 
3.64841 
3.69821 
2.24532 
2.28067 
2.45587 
2.34163 
3.74825 
2.36194 
3.72385 
3.76328 
2.26312 
3.77091 
2.36236 
3.68989 
2.42137 
3.72798 
3.73485 
2.41169 
2.31675 
2.29613 
3.75024 
2.24905 
2.36989 
2.37532 
3.54538 
2.36917 
3.6774 
3.71171 
2.37216 
2.38394 
2.42126 
2.43219 
3.70807 
2.38633 
3.68529 
2.27128 
3.75845 
2.41363 
3.72781 
2.4104 
2.3237 
2.27394 
2.31773 
3.66514 
3.74285 
3.76131 
2.46258 
2.43077 
2.45294 
2.29577 
3.66202 
2.40256 
2.34482 
3.65387 
2.31655 
2.36724 
2.26728 
2.32992 
3.6489 
3.76802 
2.41078 
3.70743 
2.45048 
3.70018 
2.35467 
2.33291 
3.73508 
3.7095 
2.31091 
2.33464 
3.71834 
2.34393 
2.33318 
2.49642 
3.71974 
3.69881 
2.35866 
2.35001 
2.41647 
3.72105 
3.68939 
2.31512 
3.70405 
2.30199 
2.45517 
3.76691 
3.72922 
2.43818 
2.26908 
2.38309 
2.37618 
3.70982 
2.36615 
2.36274 
2.41619 
2.35714 
2.43083 
2.31536 
2.41093 
2.32457 
3.76459 
3.72966 
2.56995 
2.34053 
3.69771 
3.70074 
2.38418 
2.44679 
3.71899 
3.65899 
2.33742 
2.44632 
2.49618 
3.70948 
2.35103 
3.72029 
2.41291 
2.42911 
3.75586 
2.26121 
3.75975 
2.42186 
3.67967 
2.33876 
2.2933 
2.27124 
2.46931 
3.72187 
2.27083 
3.74717 
2.31626 
2.32735 
3.69724 
2.26309 
3.7626 
3.74978 
3.75707 
2.39527 
2.28988 
2.34474 
2.32313 
2.34711 
2.30972 
3.74656 
3.70935 
2.36587 
2.3015 
2.21858 
3.68306 
3.7317 
2.38349 
3.74961 
2.25813 
2.40928 
2.32064 
3.73415 
2.3034 
3.71351 
2.37809 
2.32963 
3.71655 
3.6794 
2.27807 
2.38111 
2.36396 
2.5044 
3.761 
3.64926 
2.34032 
2.39149 
2.47852 
3.71019 
2.30102 
2.20399 
3.76233 
3.65887 
3.56893 
3.76868 
3.70935 
2.42785 
2.28275 
2.33338 
3.75046 
3.76267 
2.32211 
2.32453 
2.36454 
2.39221 
3.70281 
2.34515 
2.37583 
2.38658 
2.33768 
3.74718 
3.72369 
2.30553 
2.36434 
2.32561 
2.39288 
3.74516 
3.75155 
3.71748 
3.68671 
2.30817 
2.36447 
2.35346 
2.41421 
3.74094 
2.3317 
2.39049 
3.74918 
3.76229 
2.3194 
2.24647 
3.6706 
2.21373 
2.40295 
2.49213 
2.28566 
3.65575 
3.71259 
3.75945 
2.29857 
3.7686 
2.37534 
3.73136 
3.71884 
2.23034 
2.35686 
2.29246 
2.51352 
3.74073 
2.25071 
3.69422 
2.33448 
3.73938 
2.2901 
2.38291 
2.38754 
2.37598 
2.27285 
3.66878 
3.73491 
3.75899 
2.33183 
2.37968 
3.75457 
3.64064 
2.26038 
2.23952 
3.7269 
2.39137 
2.13592 
3.75071 
2.37186 
2.37655 
2.35691 
2.36102 
2.37395 
2.33618 
2.36826 
3.73674 
3.69991 
3.75166 
2.39924 
2.32575 
3.72666 
2.31819 
3.74145 
3.73469 
3.74173 
2.26076 
2.40621 
2.32588 
2.35469 
2.49981 
2.39764 
3.76177 
3.63068 
2.40405 
2.42461 
2.35698 
2.40731 
2.34428 
2.31403 
3.66207 
3.75184 
2.39611 
2.33466 
2.34588 
2.36504 
3.75456 
3.75665 
2.30587 
3.67243 
2.41662 
2.31821 
2.40768 
3.73256 
3.75289 
2.2518 
3.61095 
2.26866 
2.31831 
2.45349 
2.3789 
2.33093 
2.33031 
3.74246 
3.74134 
3.68024 
3.73226 
3.74319 
2.40033 
3.74612 
2.3284 
3.66913 
3.71179 
2.31208 
2.39798 
3.64669 
2.47766 
3.74892 
2.31351 
3.74954 
3.69605 
2.3979 
2.4252 
2.37097 
2.36424 
3.74623 
2.31297 
2.33965 
3.7617 
2.27612 
3.73284 
3.71438 
2.33728 
2.45205 
3.74725 
3.67541 
2.37257 
2.40583 
3.74153 
2.25337 
2.35941 
2.4035 
2.42759 
2.23947 
2.41125 
3.72741 
2.30083 
3.69918 
3.62168 
2.21 
2.31798 
2.30186 
3.75549 
2.26969 
2.46916 
2.2501 
2.37156 
3.74736 
3.65114 
2.38596 
3.70081 
2.40334 
3.76149 
3.67418 
3.76812 
2.31115 
2.39949 
3.77006 
2.26393 
2.36149 
3.75662 
3.75021 
3.71639 
2.35247 
2.33491 
2.39954 
2.30688 
2.27849 
2.42378 
3.75349 
3.69669 
2.3764 
2.37171 
3.64541 
2.30511 
2.43864 
2.2833 
2.36382 
3.75687 
3.74001 
2.43017 
2.27038 
3.76675 
2.34999 
2.49503 
2.33177 
2.38383 
3.69642 
2.40086 
3.73621 
2.42563 
3.68836 
2.34155 
2.36478 
3.72472 
3.73436 
3.76632 
2.38197 
2.30923 
3.67978 
3.74822 
2.2962 
2.43079 
3.72451 
3.67039 
2.27498 
2.33035 
2.38154 
2.39002 
2.3829 
3.73126 
2.27036 
3.70764 
3.76404 
2.50516 
3.63387 
2.28983 
2.30189 
2.36341 
3.68734 
2.2258 
3.66024 
2.3777 
2.36613 
3.75097 
2.39337 
2.41116 
2.37585 
2.34214 
3.68851 
3.75598 
3.76934 
2.3194 
2.41357 
3.43259 
2.34961 
2.45271 
2.35907 
2.31052 
3.7498 
3.75875 
2.26481 
3.77035 
2.40218 
3.77045 
2.32673 
2.28017 
3.68898 
2.42983 
3.60001 
2.27232 
2.36276 
2.33037 
3.63556 
2.40232 
2.41448 
3.75598 
2.34425 
2.32347 
2.31157 
2.34409 
3.72915 
3.76049 
2.36578 
2.38 
3.72725 
2.37747 
2.38887 
2.32639 
2.34531 
2.431 
2.34034 
2.35531 
2.41702 
2.34882 
3.76477 
2.37802 
3.7705 
2.4231 
2.44175 
2.39494 
2.20955 
3.73524 
3.72781 
3.69479 
2.40151 
2.39771 
2.52124 
2.28491 
2.34385 
3.68508 
3.75352 
2.40761 
2.38602 
3.63551 
3.71593 
2.33435 
3.70099 
3.7645 
3.68738 
3.73478 
3.68806 
3.7569 
2.30542 
2.41631 
2.36572 
2.27415 
3.70722 
3.75074 
3.61339 
2.41013 
2.37227 
2.37975 
2.36543 
3.7666 
3.71105 
3.69961 
2.30654 
2.41225 
2.30878 
2.41518 
3.66836 
2.34819 
2.35548 
2.37828 
2.36617 
3.76503 
2.48457 
3.69257 
3.73464 
2.27984 
2.44002 
3.67572 
2.35983 
2.41048 
2.3095 
3.70545 
2.41859 
2.21384 
3.73306 
3.75578 
3.68703 
2.25439 
2.56817 
2.28061 
2.29686 
3.76117 
2.30114 
3.60382 
3.77055 
2.353 
3.72849 
3.76746 
3.71861 
2.23248 
2.38632 
3.7435 
2.30506 
2.52682 
3.67589 
2.3993 
2.33607 
2.36155 
2.37831 
2.35801 
2.36738 
2.35172 
3.76805 
3.76622 
2.33763 
3.71114 
2.31722 
2.3801 
2.36524 
2.27771 
3.74246 
2.27635 
3.76201 
2.37681 
3.65376 
2.2699 
3.7402 
2.40082 
2.36043 
2.33947 
2.34373 
3.70097 
3.76307 
3.71457 
2.33432 
3.71882 
2.32351 
2.3669 
2.42201 
3.7458 
2.24861 
2.32548 
3.72425 
3.73085 
2.29911 
3.74184 
2.39692 
2.43381 
2.42147 
3.66456 
3.76226 
3.7064 
2.37178 
2.29186 
3.76611 
3.6764 
3.76705 
2.29561 
2.38349 
2.51871 
2.34678 
3.74395 
2.41913 
2.35528 
2.40162 
2.31341 
3.7607 
3.73586 
2.35073 
2.4881 
2.3373 
2.38415 
3.70918 
3.73227 
2.38218 
2.44701 
3.72691 
2.45623 
2.33972 
2.40296 
2.44056 
2.33245 
2.29671 
3.7546 
2.29755 
2.3093 
3.76768 
3.71855 
3.74393 
2.27115 
2.35885 
3.75428 
2.38362 
2.4302 
3.74263 
3.72701 
2.24573 
2.42326 
2.34413 
2.26958 
3.76596 
2.35413 
3.7276 
2.32908 
3.74904 
2.27184 
2.37004 
3.75931 
3.76965 
3.73716 
2.47277 
2.2616 
3.74721 
2.43346 
2.3851 
3.75043 
3.76058 
2.40343 
2.37491 
2.39107 
2.4023 
2.30704 
2.38136 
3.71498 
3.75214 
2.28511 
2.41752 
3.63991 
2.28511 
2.43798 
3.64818 
3.75122 
2.26337 
2.32556 
3.72362 
3.72506 
3.75788 
2.4171 
2.34809 
2.4832 
2.40384 
2.38932 
2.24836 
2.35273 
2.44811 
3.76364 
3.75583 
2.44601 
2.45525 
2.42623 
2.28808 
3.67378 
3.71319 
2.33152 
2.44171 
3.76649 
2.348 
2.33918 
3.73316 
2.3201 
2.43653 
2.36324 
2.31251 
2.3738 
2.38771 
3.76771 
3.68051 
2.31129 
2.39106 
3.74424 
3.75509 
2.29343 
2.33126 
3.73346 
3.67763 
3.75 
2.34551 
3.70781 
2.35156 
3.72295 
2.31659 
2.36335 
3.71061 
2.40218 
2.28493 
3.75461 
3.75304 
3.65591 
2.35107 
2.37469 
3.69165 
2.41867 
2.33797 
3.56709 
2.33871 
2.43109 
3.76072 
2.38708 
3.61165 
2.38116 
3.71279 
2.37905 
2.32529 
3.70385 
3.7047 
2.40368 
2.29885 
2.27828 
2.28574 
3.74673 
2.36592 
2.29271 
3.77075 
2.35307 
2.36224 
2.36234 
3.77005 
2.3399 
3.76962 
3.72314 
2.36897 
2.47812 
2.3883 
2.32082 
2.36345 
3.61543 
2.29359 
3.73254 
3.75325 
3.74494 
3.76134 
2.37873 
2.37619 
2.31617 
2.3652 
2.26577 
2.26029 
3.73588 
2.31783 
2.39433 
3.72731 
2.37115 
3.7138 
3.65757 
2.38814 
3.76777 
3.74228 
3.73435 
2.31801 
2.3813 
2.36716 
2.46418 
2.34477 
2.24163 
3.71396 
3.75521 
2.48102 
2.30689 
3.73949 
2.37868 
2.17755 
2.37946 
3.62122 
2.37706 
3.72496 
2.48906 
2.31138 
2.49869 
2.38173 
2.36541 
2.35079 
3.70497 
3.76479 
2.2317 
3.76474 
2.36594 
2.3125 
3.73329 
2.36224 
3.71513 
3.74537 
3.70279 
2.38318 
2.36859 
3.74829 
3.75666 
2.37825 
2.35479 
3.7681 
2.30473 
2.31833 
2.30633 
3.76735 
2.34762 
3.71701 
3.6987 
3.71481 
2.24311 
2.36237 
2.33631 
2.39392 
3.76565 
2.36916 
2.44992 
2.38364 
3.72918 
3.75302 
2.50323 
3.69634 
3.71718 
2.31268 
3.72689 
2.30834 
3.75524 
3.7649 
3.76788 
2.21736 
2.26299 
2.41231 
3.69671 
2.29187 
3.73887 
3.75082 
2.22893 
3.72548 
3.66648 
2.49471 
2.27086 
3.70399 
2.34236 
2.31553 
2.26532 
3.63065 
2.3933 
2.39274 
3.68782 
2.33422 
2.36171 
3.72968 
2.37635 
2.31454 
2.28618 
3.76821 
2.3553 
3.7032 
3.68168 
3.72241 
2.43273 
2.28367 
2.30472 
3.76933 
2.29184 
2.2709 
3.71035 
2.46952 
3.75723 
3.60568 
2.30438 
2.392 
2.31884 
2.46296 
2.33678 
2.35709 
2.34212 
2.30165 
3.76615 
3.66985 
3.7609 
2.22662 
2.44852 
3.50798 
2.25547 
2.40934 
2.40327 
2.39098 
2.3847 
2.37902 
3.75877 
3.70843 
2.44534 
2.37832 
2.31801 
3.68318 
2.32727 
2.30069 
2.28863 
3.77024 
2.39825 
3.76101 
2.38437 
2.34878 
2.37517 
3.72725 
3.70573 
2.37833 
2.39858 
2.36462 
2.36983 
3.74476 
3.76789 
2.27363 
2.4216 
3.75098 
3.72591 
2.38306 
2.26146 
2.30369 
2.42624 
3.77082 
2.4459 
2.49166 
2.20528 
3.72491 
2.34816 
3.68247 
2.28094 
3.66 
2.21846 
3.56263 
3.71068 
2.35762 
3.68449 
2.44657 
3.76951 
2.25271 
2.34138 
2.28733 
2.30625 
3.70881 
3.75445 
3.75465 
2.46911 
2.34104 
3.771 
2.45184 
2.39194 
3.7256 
2.28711 
2.21874 
3.76612 
3.71945 
3.68435 
2.39772 
2.4004 
2.42822 
2.27601 
3.71418 
2.27545 
2.35612 
2.26881 
2.40768 
3.70163 
2.39083 
2.37562 
2.34147 
2.35244 
3.74574 
2.36461 
2.41471 
3.66269 
3.75148 
3.6383 
2.41691 
2.3225 
3.76817 
3.70538 
2.25168 
2.37916 
3.62532 
3.68282 
3.72715 
2.24687 
2.39192 
3.76712 
3.76278 
2.35561 
2.39205 
2.3441 
2.4799 
2.39047 
3.74122 
2.45715 
3.74878 
2.34969 
2.32499 
3.73918 
3.73884 
2.30976 
2.37059 
2.3478 
2.33507 
2.43059 
2.37888 
3.7624 
2.234 
2.4672 
2.24536 
2.29492 
3.71118 
3.62092 
3.6428 
2.32252 
2.24 
3.74922 
2.43173 
2.29555 
3.7618 
2.45453 
2.38689 
3.72551 
2.49009 
2.34622 
3.75594 
2.31206 
2.3435 
3.70413 
2.29526 
2.27772 
2.31632 
2.35642 
3.72129 
2.36025 
2.353 
2.28765 
2.46683 
3.64258 
2.28237 
3.74957 
2.33781 
2.33494 
2.37145 
3.7665 
2.31814 
2.42363 
2.33481 
3.74432 
2.31954 
3.74086 
2.37848 
3.74422 
2.29092 
3.72648 
2.39199 
2.30662 
2.38035 
2.25398 
2.46188 
2.4451 
2.38297 
2.40933 
2.39572 
2.32944 
3.67192 
2.30531 
3.74561 
2.30979 
3.711 
3.66611 
2.31021 
2.30882 
3.73034 
2.38917 
2.32004 
3.65528 
2.29058 
3.74496 
3.5928 
2.39586 
3.72035 
2.38344 
3.70566 
2.40269 
2.33281 
3.66403 
2.44213 
2.31839 
3.73726 
3.68319 
3.60154 
2.31056 
3.67713 
2.39485 
2.2785 
3.76421 
2.39237 
2.32639 
3.77106 
2.26099 
2.45207 
2.25238 
2.50944 
3.74391 
2.32022 
2.42615 
3.75687 
2.32751 
2.29751 
2.3642 
2.37042 
3.72472 
2.2506 
2.32049 
3.74116 
2.35953 
2.39139 
2.37421 
2.30521 
3.76851 
2.53529 
2.30226 
3.71615 
2.22684 
2.36415 
2.36071 
2.38735 
3.72717 
2.29969 
3.67033 
2.37365 
3.70534 
2.49127 
3.7428 
2.31847 
2.28939 
2.47147 
2.3588 
3.75051 
3.76572 
2.35788 
2.42251 
2.52337 
3.72684 
3.69513 
2.28606 
2.25855 
2.3408 
3.76053 
2.39792 
2.42595 
2.27117 
3.57468 
3.75179 
3.75763 
2.35141 
2.29287 
2.43993 
2.40744 
3.72139 
2.35127 
2.33663 
2.38227 
3.75332 
2.34831 
3.7292 
3.74031 
2.35659 
2.44186 
3.70708 
2.40183 
3.75524 
2.31907 
3.73331 
3.66212 
3.66531 
2.42669 
3.73645 
2.44672 
2.29193 
3.75104 
2.26896 
2.43038 
3.68456 
2.36397 
2.37939 
3.7466 
3.70648 
2.38887 
3.69422 
2.35155 
2.39488 
2.4473 
3.69023 
2.42668 
2.46405 
3.63428 
3.64397 
2.32808 
3.76941 
2.32072 
3.7091 
3.66299 
3.71702 
3.76945 
2.3385 
2.3689 
2.33068 
2.40206 
2.40367 
2.38663 
3.58234 
3.73263 
2.33915 
2.30889 
2.37265 
2.26339 
3.6129 
2.32951 
2.38666 
3.63633 
2.27831 
2.41277 
3.68555 
3.73935 
3.76629 
2.33379 
3.71648 
2.48249 
3.75575 
2.35019 
2.42019 
3.76404 
2.33562 
2.39164 
3.658 
2.27686 
3.70598 
3.67555 
2.3062 
3.62955 
2.29714 
2.30724 
2.3488 
2.42985 
3.76044 
3.70825 
3.76483 
2.38094 
2.2388 
3.75043 
2.39527 
2.42817 
2.3955 
2.33522 
3.70321 
2.39575 
2.42662 
2.34344 
2.37453 
2.3384 
2.38041 
3.76831 
3.74475 
2.35713 
3.70055 
3.7287 
2.30784 
3.6762 
2.28202 
3.7434 
2.2448 
2.47752 
2.32145 
2.30346 
3.66889 
3.73369 
3.72564 
2.43444 
2.32909 
3.74154 
2.33649 
2.38969 
3.76806 
2.39451 
2.29828 
3.70019 
2.38618 
2.34639 
2.30053 
2.32692 
3.7149 
3.76571 
3.7573 
2.35594 
3.72404 
3.75869 
2.29858 
2.32188 
3.76301 
3.75407 
3.67616 
2.33792 
2.31701 
2.3775 
2.31399 
3.74818 
2.36206 
2.44328 
2.43786 
2.32328 
2.33517 
2.38241 
2.4426 
3.72858 
2.31926 
2.32696 
3.6444 
2.43278 
2.30719 
2.33375 
2.46096 
3.76419 
3.76353 
2.24946 
3.75829 
2.3391 
2.341 
2.36519 
2.35708 
2.30691 
2.36246 
2.40209 
2.33372 
2.36707 
2.43469 
2.34823 
3.68482 
2.43569 
2.27426 
3.75595 
2.44846 
2.33211 
3.71643 
2.335 
2.43113 
3.73091 
2.42326 
2.23122 
2.40759 
2.40972 
3.7342 
2.45353 
2.42087 
3.75748 
3.7569 
2.34629 
2.40537 
2.30013 
2.38546 
2.38295 
2.36746 
3.73082 
2.40601 
3.77042 
2.37147 
2.33159 
2.34947 
2.34637 
3.57352 
2.23155 
2.37795 
2.36271 
2.45192 
2.31296 
2.3035 
3.70145 
3.71808 
3.63175 
3.70752 
3.74987 
2.39883 
2.28837 
2.45578 
3.73359 
3.76308 
2.36722 
2.323 
2.36754 
2.45867 
2.38777 
3.76168 
2.23576 
2.41857 
3.76053 
3.7601 
3.75225 
3.70745 
2.27581 
3.68676 
2.3408 
3.73575 
2.37909 
2.31466 
2.39299 
2.36424 
2.33931 
2.339 
2.33581 
2.38483 
2.35002 
2.33539 
2.37063 
3.762 
3.74229 
3.76419 
3.69502 
2.35351 
2.25242 
3.71523 
2.28883 
2.36813 
2.32279 
3.74805 
3.76656 
3.6821 
3.72813 
2.32656 
2.44471 
3.73731 
3.70765 
2.37821 
2.40362 
2.39262 
2.42796 
3.75189 
2.3661 
2.28159 
2.28562 
3.723 
3.74334 
3.73336 
2.28873 
2.33739 
2.30032 
2.34661 
2.46372 
2.34656 
2.332 
3.7146 
2.50445 
2.39944 
2.40769 
3.76815 
3.7254 
2.30042 
3.74348 
2.36365 
3.72706 
2.32316 
2.38454 
3.74147 
3.74307 
3.72983 
2.42313 
2.33248 
2.39649 
3.72562 
2.43252 
2.19959 
2.41767 
2.36628 
3.74422 
2.34416 
2.49189 
2.35391 
3.71651 
3.74402 
2.4163 
2.30685 
3.72819 
2.35723 
2.45267 
3.7121 
3.76207 
2.39978 
2.36908 
3.70848 
2.26602 
3.73629 
2.2785 
3.76034 
3.65773 
2.43043 
2.32534 
2.38484 
2.44055 
3.7523 
2.39815 
2.36931 
2.31849 
3.7617 
2.37047 
2.33 
2.46121 
3.76745 
2.39594 
2.4751 
3.66729 
2.34565 
2.34054 
3.76545 
2.49661 
3.75626 
2.36698 
3.7543 
3.69742 
2.44021 
2.33849 
3.66348 
3.64385 
2.40339 
2.36481 
2.35444 
2.39257 
3.68173 
2.28471 
2.37761 
2.37412 
2.34386 
3.75372 
3.73922 
2.31714 
2.31199 
2.3191 
3.73962 
3.70551 
2.37002 
2.34646 
2.35078 
2.39237 
3.70953 
3.73122 
2.27609 
3.69296 
2.33904 
2.34009 
3.7437 
3.75431 
3.7499 
3.75758 
2.31125 
2.33608 
3.71664 
2.33596 
2.28444 
3.73722 
3.77088 
2.27784 
3.67171 
2.39698 
2.32161 
3.62481 
3.73183 
3.70326 
2.29311 
3.762 
2.34199 
3.7209 
2.33507 
2.29674 
3.68577 
2.36045 
2.42621 
3.72991 
2.37096 
2.40055 
2.25811 
3.75291 
2.30231 
3.72763 
3.74937 
3.68985 
2.45018 
2.29911 
3.73869 
2.42987 
2.28157 
2.34938 
2.32904 
3.73151 
3.68514 
3.76898 
2.4137 
2.37955 
2.41383 
2.36182 
2.30293 
2.41573 
3.74346 
3.72852 
2.35125 
2.40036 
2.42508 
2.33687 
3.61467 
2.33595 
3.71091 
3.68967 
3.7576 
2.3365 
2.36369 
3.71317 
2.38209 
2.46019 
2.35611 
2.31819 
3.72341 
2.39234 
3.73247 
2.26411 
2.3443 
2.22854 
3.712 
3.65478 
2.35546 
2.33625 
2.37396 
2.37136 
2.328 
3.76138 
2.39759 
3.67059 
2.34318 
2.26951 
2.39843 
2.39009 
3.70845 
3.74183 
2.43518 
3.65841 
2.32224 
3.7597 
2.45764 
3.76675 
2.487 
3.74076 
2.37074 
2.30327 
3.7688 
3.76914 
3.59569 
2.2313 
2.31118 
2.23425 
2.34879 
2.39391 
2.37241 
2.42103 
2.39107 
2.29961 
2.32989 
2.30466 
3.71217 
3.75983 
2.29246 
2.31726 
3.73313 
2.37858 
3.72569 
2.30172 
3.66198 
3.66072 
3.69677 
3.69248 
2.33144 
2.33408 
2.32537 
3.68162 
2.36989 
3.72951 
2.31755 
2.34429 
2.40828 
3.69678 
3.75337 
2.37565 
3.76247 
3.70017 
2.33573 
3.68101 
2.33334 
3.60297 
2.23301 
3.66664 
3.77039 
2.38561 
2.41948 
3.73085 
3.68037 
3.67856 
2.41115 
2.1945 
3.65625 
2.36012 
2.36949 
2.34554 
2.32642 
3.71344 
2.31698 
2.42695 
3.75851 
2.3221 
2.28817 
3.74348 
3.7354 
2.27724 
2.42357 
2.2752 
2.3468 
3.76263 
3.71148 
3.71858 
2.31909 
2.2487 
3.71665 
2.30148 
2.2837 
3.71493 
2.3859 
2.274 
2.3915 
3.6724 
2.43309 
2.37622 
2.32467 
3.72332 
3.71866 
2.48075 
2.24508 
2.34153 
3.64421 
2.49078 
2.28101 
3.61365 
2.24417 
3.71531 
3.66564 
3.73259 
3.76674 
2.38754 
2.28684 
3.7496 
3.75929 
2.36916 
2.41644 
3.73894 
2.29574 
2.37385 
3.74712 
3.73802 
2.37147 
3.74643 
2.38087 
3.73683 
2.27543 
2.35044 
3.74326 
2.25382 
2.39353 
3.66295 
2.38072 
2.31011 
3.76778 
2.44623 
3.65508 
3.76744 
3.72534 
2.37155 
2.39493 
2.3602 
2.4232 
2.36765 
3.71951 
2.3302 
3.66259 
3.70206 
3.76166 
3.62549 
3.65821 
3.76513 
2.27617 
2.38451 
2.40123 
2.38954 
3.71719 
2.32562 
3.72814 
2.27294 
3.76021 
3.70248 
2.34749 
2.31852 
3.72084 
2.4671 
2.29752 
3.73686 
2.3904 
2.30817 
2.32829 
2.33964 
3.7061 
2.44437 
3.76722 
3.69582 
3.76935 
2.32985 
2.33616 
2.28767 
2.37775 
3.72429 
2.25542 
2.39798 
2.35593 
2.37436 
2.39846 
2.3027 
2.45746 
2.2792 
3.74725 
2.3636 
2.31904 
3.74527 
3.75719 
2.26942 
2.3148 
3.76783 