ITEM: TIMESTEP
70
ITEM: NUMBER OF ENTRIES
108001
ITEM: BOX BOUNDS pp pp pp
0 108.62
0 108.62
0 54.31
ITEM: ENTRIES c_pairDist 
2.44192 
2.38264 
3.7654 
3.75269 
2.41201 
3.73466 
2.36746 
2.30552 
2.3484 
2.34783 
3.76526 
3.75372 
3.72592 
2.41563 
2.36943 
2.35836 
2.40838 
3.72646 
2.37434 
3.55075 
2.29061 
3.71414 
2.30715 
3.76172 
3.63328 
2.31496 
3.74525 
2.3021 
2.32486 
2.40644 
3.72125 
2.39386 
2.34486 
3.70315 
2.28563 
2.30894 
3.75584 
3.71769 
3.7132 
2.39389 
2.3276 
2.32537 
2.30904 
3.70168 
3.74623 
2.31824 
2.39433 
3.70682 
2.41871 
2.34141 
2.3078 
3.70049 
3.72145 
3.69466 
2.2358 
2.39659 
2.32736 
2.37896 
3.71235 
3.69053 
3.72361 
2.23384 
3.73199 
3.67522 
2.26972 
3.66187 
2.30676 
2.32132 
2.21716 
3.74269 
3.73218 
3.66725 
3.71298 
3.76294 
2.39648 
2.34514 
2.28699 
2.34587 
2.51452 
3.76722 
3.74516 
3.74116 
2.35668 
3.68206 
3.7297 
2.25807 
2.36289 
2.37652 
2.38227 
2.35285 
3.68033 
3.72628 
2.2815 
3.76684 
2.33018 
2.31746 
3.69584 
2.34223 
3.77098 
2.47259 
2.3862 
2.21467 
2.4066 
3.7293 
3.66324 
3.76201 
2.26749 
3.71453 
2.4137 
2.35166 
3.75472 
3.75458 
2.38209 
2.31163 
2.35172 
3.74254 
2.38558 
2.39057 
2.34688 
3.57754 
3.71796 
2.27544 
2.3002 
2.34619 
3.75955 
2.40887 
2.47119 
3.6592 
2.37142 
3.75006 
2.30289 
2.35992 
2.32621 
2.41042 
2.42328 
3.74741 
2.41965 
3.67162 
2.32465 
2.37521 
3.77097 
3.70992 
3.74292 
3.70614 
2.43296 
2.38808 
2.33931 
2.39405 
3.7428 
3.7217 
3.75406 
3.63653 
3.74177 
3.73691 
2.28658 
3.71239 
2.31964 
2.29459 
2.27135 
3.75773 
3.72753 
3.67873 
3.69158 
2.42802 
2.36662 
2.39446 
3.62079 
3.702 
2.22121 
2.33847 
3.72368 
3.69404 
3.65014 
3.7191 
2.26781 
2.32384 
2.31812 
2.38536 
2.39463 
3.75851 
3.70004 
2.37408 
2.32894 
3.74434 
2.4523 
2.31991 
3.75295 
2.21001 
2.33126 
3.73245 
3.72139 
2.40225 
2.37107 
2.35653 
3.56361 
2.32653 
3.63646 
3.74254 
3.76634 
3.7419 
2.33273 
2.46349 
2.41254 
2.42743 
2.38693 
2.32873 
3.6758 
2.2766 
2.44867 
2.38628 
3.61751 
3.69195 
2.24589 
2.29102 
2.29875 
2.40651 
3.72325 
2.39022 
3.74416 
2.31621 
3.70511 
2.34355 
3.67324 
3.71042 
3.74531 
2.37137 
2.34193 
2.34746 
2.32357 
3.76269 
2.33898 
2.48977 
2.50929 
2.43564 
3.71686 
2.25421 
2.29179 
3.70949 
3.71368 
2.41544 
3.76453 
3.73706 
2.38965 
2.4159 
2.23751 
3.75685 
3.58747 
3.7309 
3.66382 
2.39644 
3.70138 
2.32417 
2.36735 
2.33879 
3.64313 
3.76495 
2.26068 
3.71469 
2.31643 
3.7655 
2.32466 
2.34199 
2.43822 
2.40004 
3.65503 
2.4404 
2.35529 
2.32203 
3.74015 
3.74204 
3.76924 
3.75227 
2.38471 
2.48461 
2.2669 
2.4542 
2.38876 
2.37814 
2.32993 
3.7131 
3.75683 
3.6762 
2.29079 
3.75499 
3.70195 
2.36862 
2.30002 
2.3984 
3.71481 
3.74901 
3.75833 
3.68335 
3.70283 
3.66408 
2.2241 
3.75585 
2.27015 
3.72643 
2.35003 
3.76036 
2.36182 
3.7172 
3.74102 
2.28847 
3.76921 
2.43822 
3.73863 
2.36191 
2.39899 
3.71737 
2.31595 
2.33595 
3.76523 
2.35754 
2.37602 
3.75496 
2.31629 
3.7398 
2.29614 
2.39127 
2.33633 
3.75206 
3.74369 
3.74387 
2.4135 
2.29117 
2.36323 
3.76905 
2.35368 
3.60492 
3.75111 
2.42523 
3.67764 
3.63787 
2.45027 
2.2941 
3.69372 
2.28221 
2.35881 
3.74679 
2.34666 
2.46397 
3.65707 
3.75285 
2.47111 
2.30843 
3.71181 
2.28426 
2.42828 
3.65065 
2.31959 
2.43206 
2.35989 
3.76027 
3.75834 
2.35177 
2.30792 
2.34345 
3.72993 
2.40329 
3.74786 
2.49129 
2.37227 
3.74083 
2.29881 
3.7026 
3.67594 
3.66378 
2.34214 
2.30062 
2.40738 
2.32687 
3.75308 
2.35519 
2.38359 
2.26691 
3.67445 
3.74134 
2.38493 
2.25653 
3.66185 
2.40135 
2.40566 
2.30192 
2.36866 
2.30502 
3.61185 
3.75083 
2.31513 
2.50098 
2.44349 
3.73305 
3.68182 
2.30123 
3.7695 
2.39146 
2.25409 
2.35886 
3.65759 
3.71349 
2.3401 
3.70318 
2.3009 
2.37859 
2.37783 
2.41751 
2.27474 
2.38246 
3.73173 
3.76843 
2.34094 
2.24555 
3.61021 
2.38322 
3.74531 
2.36243 
3.67659 
3.76312 
2.39425 
3.74177 
2.34724 
2.31319 
3.74849 
2.31879 
3.6605 
3.72513 
3.67739 
2.28532 
3.67611 
2.31722 
3.76761 
2.31871 
3.67402 
2.40104 
2.29102 
2.3319 
2.3653 
3.7679 
3.74636 
3.71015 
2.41111 
3.71789 
2.16681 
3.74634 
2.30047 
3.70392 
2.33164 
2.34745 
2.42138 
2.34455 
3.7499 
2.33904 
3.71397 
2.3214 
2.30872 
2.36784 
3.77088 
3.76368 
2.42189 
3.69405 
2.13827 
3.70381 
2.45272 
2.48723 
3.75817 
3.75752 
3.76766 
3.74193 
2.25642 
3.7135 
2.40814 
2.45745 
2.43439 
2.32921 
2.34602 
3.69102 
2.47606 
2.41524 
2.36783 
3.73884 
2.3574 
3.71926 
2.36521 
2.34608 
3.69984 
2.44952 
2.37347 
2.30752 
2.21778 
3.77109 
2.47838 
2.43583 
2.34667 
3.67583 
3.65646 
2.25544 
3.69333 
2.3224 
3.73974 
2.40235 
2.33275 
3.74691 
2.32028 
2.39023 
3.65694 
2.35606 
2.42724 
3.75519 
2.30947 
2.32002 
3.62583 
2.4238 
2.4777 
2.30051 
2.41189 
3.71276 
3.74415 
2.30971 
3.73014 
2.41085 
2.44755 
2.41574 
3.63586 
2.36826 
2.27871 
2.50624 
2.42644 
2.27065 
3.76934 
3.73051 
2.30311 
2.35849 
2.4417 
3.62914 
2.21747 
3.76337 
2.30931 
3.61974 
2.43206 
2.47331 
2.35841 
2.31567 
2.29104 
3.71291 
3.71565 
3.74484 
2.32778 
2.37302 
2.51824 
3.68514 
2.35651 
3.72233 
2.36874 
2.45243 
2.22765 
3.64166 
3.63638 
2.39122 
2.28013 
3.72028 
2.37031 
2.35979 
3.66716 
3.70012 
3.75154 
3.7413 
2.34591 
3.75469 
2.34533 
2.34808 
3.70907 
2.48959 
3.75388 
3.67071 
2.37746 
2.37356 
2.35047 
3.72345 
3.73068 
2.29195 
2.44381 
2.37718 
2.35748 
3.73806 
3.69803 
2.24672 
3.67302 
2.342 
2.4789 
3.76581 
3.70053 
2.29223 
3.68716 
3.68289 
2.44918 
2.34801 
2.39955 
3.73016 
2.31585 
2.39611 
2.42335 
3.67655 
3.66325 
3.60598 
2.35581 
2.26568 
2.33768 
2.34243 
3.68284 
2.33578 
3.77084 
2.50468 
2.28712 
3.7252 
2.37316 
2.31187 
2.29224 
3.7282 
2.34409 
3.70709 
2.39038 
2.27372 
2.23369 
3.72847 
2.35663 
3.73686 
2.38511 
2.35067 
3.71129 
3.76232 
2.35012 
2.41688 
2.3918 
2.24716 
3.76599 
3.73206 
2.37466 
2.35081 
2.48714 
3.75835 
3.73483 
3.58944 
2.44384 
3.68456 
2.32663 
3.74535 
3.71454 
2.33604 
2.36136 
3.76779 
2.28753 
2.4592 
3.67559 
2.38918 
3.63229 
2.27511 
2.40634 
3.76902 
3.57686 
2.31562 
3.76129 
2.36637 
3.75828 
2.36865 
3.63405 
2.35725 
2.37085 
2.22328 
3.58957 
2.47977 
3.71488 
2.361 
2.5589 
3.74266 
3.76904 
2.39196 
2.29311 
2.2835 
3.75768 
3.70975 
3.74961 
3.75222 
2.35794 
2.28434 
2.34371 
2.42549 
3.73216 
3.48247 
2.36509 
2.33434 
2.5091 
2.4145 
2.35651 
3.62599 
2.35877 
2.48763 
2.3637 
2.29773 
3.7544 
2.38306 
3.58784 
2.31718 
3.71892 
2.40412 
2.40794 
2.28821 
3.76154 
2.32311 
3.75624 
2.34419 
3.68646 
2.40993 
3.76202 
3.71715 
3.70955 
2.39877 
2.37903 
2.48865 
3.72604 
2.3833 
2.36685 
3.76862 
3.753 
2.29214 
3.67823 
3.70631 
2.39982 
3.75586 
3.7335 
3.68469 
2.27742 
2.41666 
2.37793 
2.30369 
3.75223 
2.33706 
3.73853 
3.76527 
3.71122 
3.73746 
2.3887 
2.27942 
3.72738 
2.43471 
2.24231 
3.76127 
3.69485 
3.74709 
2.33268 
2.34944 
2.24085 
2.40977 
3.76901 
3.75769 
2.36598 
3.68792 
3.76047 
3.62384 
3.74529 
3.75302 
2.34725 
2.28651 
2.36412 
3.66768 
2.31608 
2.33942 
2.37064 
2.33501 
3.75765 
2.32277 
3.67137 
3.74501 
3.74436 
2.31843 
2.47413 
3.68534 
2.30221 
2.48297 
3.74047 
3.72745 
3.6683 
3.6841 
2.452 
2.22073 
3.75812 
2.38402 
3.69136 
2.3543 
3.66803 
3.73147 
2.37984 
2.31127 
2.50821 
2.31407 
2.2874 
2.27672 
3.67553 
3.64856 
2.37784 
2.37872 
3.76063 
2.34846 
3.70903 
2.34045 
2.29717 
3.70351 
3.73083 
2.28626 
3.74114 
3.69214 
2.35148 
2.35867 
2.39843 
3.67089 
3.72408 
2.39436 
3.73978 
3.73457 
3.71492 
2.36714 
3.76675 
2.44202 
2.41138 
2.28391 
3.76208 
3.64599 
2.30614 
2.37279 
2.36604 
2.38498 
2.27289 
2.31112 
3.75414 
3.73754 
3.74412 
3.72613 
2.41248 
2.32222 
2.41975 
3.7441 
2.24313 
2.43296 
2.46446 
3.7396 
3.74585 
2.35646 
2.39065 
3.69446 
3.719 
2.2542 
2.36126 
2.32958 
2.40271 
2.26007 
3.72938 
2.27361 
3.7232 
3.7529 
3.71135 
2.38597 
2.36242 
2.37674 
2.23843 
3.64522 
3.67782 
3.76775 
2.34585 
3.68474 
2.32291 
2.37152 
2.27697 
3.62509 
3.72407 
3.6784 
2.3733 
2.23566 
2.36876 
2.43386 
3.72486 
2.41657 
2.31583 
3.71511 
2.39368 
2.30438 
2.33339 
2.4109 
3.59849 
3.74719 
2.33427 
2.42056 
2.34537 
2.39814 
2.41395 
2.32501 
2.34695 
2.36362 
3.74938 
2.30024 
2.45149 
3.75006 
3.71963 
2.34644 
2.34846 
3.76195 
3.69495 
3.75852 
2.32878 
2.22649 
3.73923 
2.38884 
2.32952 
3.75272 
2.3082 
3.71925 
2.24207 
2.39577 
2.39463 
3.67316 
3.76883 
2.34841 
2.3312 
3.75143 
3.7125 
2.36783 
2.32836 
3.73654 
3.71876 
2.25946 
2.22138 
2.33064 
2.33902 
2.42223 
2.42017 
2.37308 
2.35953 
3.75628 
3.74621 
2.3334 
2.33963 
3.69926 
2.322 
3.70264 
3.74493 
2.43028 
3.66913 
2.38793 
3.74019 
3.74507 
2.32464 
2.3127 
3.71752 
2.33676 
3.71837 
3.74278 
2.3569 
2.32624 
3.64693 
2.40923 
2.22735 
2.37178 
2.43553 
3.73776 
2.38969 
2.35227 
2.46654 
3.74456 
2.33643 
3.76422 
2.37575 
2.25987 
3.7359 
2.27428 
2.41362 
2.40358 
2.29829 
3.74563 
2.39011 
2.24901 
3.72759 
3.67127 
3.61536 
2.33405 
2.37502 
3.76504 
2.46388 
2.24835 
3.6575 
2.34394 
3.69713 
2.35088 
2.39262 
3.75797 
2.50063 
3.71144 
2.31994 
2.30161 
2.35607 
3.73452 
2.38144 
3.60161 
2.38459 
2.54818 
3.76786 
2.36456 
2.42402 
2.39365 
2.32094 
3.70067 
2.3375 
2.37823 
2.41131 
3.71823 
2.27742 
3.63586 
3.70512 
3.74981 
2.49715 
2.39121 
3.67159 
3.71763 
2.3545 
3.76444 
2.3345 
3.71688 
2.31727 
2.33647 
3.73135 
2.38532 
3.64041 
2.32244 
3.75971 
2.33179 
2.33022 
3.74488 
2.34043 
2.32649 
3.71116 
2.34942 
2.43852 
2.31912 
3.69599 
2.42837 
2.35109 
2.39538 
3.6692 
2.31149 
2.41289 
3.74878 
2.39928 
2.3974 
3.75445 
2.38021 
2.38008 
2.35277 
3.66037 
2.25221 
3.67834 
3.76887 
3.72835 
2.34858 
2.34004 
3.71834 
2.50855 
2.32927 
2.3837 
3.65835 
2.2678 
3.64509 
2.31642 
3.74556 
2.29274 
3.7353 
3.67322 
2.33519 
2.35743 
2.37887 
2.4511 
3.64229 
2.33324 
3.72 
2.37137 
2.28543 
3.73471 
2.31016 
3.64354 
3.74954 
3.75415 
3.71121 
3.73272 
2.32634 
3.75693 
2.27332 
3.76876 
3.73425 
3.6641 
2.408 
2.47407 
2.42286 
2.47218 
2.33603 
2.29745 
3.70042 
2.41886 
2.34907 
3.69464 
3.72017 
2.35063 
2.36631 
2.29016 
2.33289 
3.74021 
2.37721 
3.71885 
2.32166 
3.7466 
3.66463 
3.76968 
2.24778 
2.43373 
2.42045 
2.34393 
3.76566 
3.73251 
2.45742 
2.2112 
3.736 
3.7623 
2.40036 
2.38141 
2.39508 
2.45816 
3.70361 
3.73723 
2.30178 
2.30423 
3.73547 
2.42754 
3.71793 
2.44252 
2.31109 
2.38814 
3.76545 
2.47499 
2.39721 
3.69412 
3.75913 
2.29485 
2.37168 
2.35437 
2.37166 
3.72832 
2.25356 
2.36721 
2.35046 
2.33854 
3.6828 
3.72155 
2.36239 
2.25731 
2.42422 
2.45707 
2.38723 
2.35836 
3.75172 
2.46555 
3.76584 
2.31379 
3.6312 
2.36337 
2.30678 
3.69123 
2.43585 
3.76447 
3.69632 
2.37542 
3.72969 
2.3469 
2.33382 
2.28474 
2.34241 
2.26873 
2.37059 
3.72208 
2.3505 
2.33592 
2.35096 
2.34413 
3.70849 
3.71083 
2.30106 
2.44313 
2.3986 
2.38853 
3.75554 
2.4081 
2.4018 
2.39146 
2.42046 
2.46449 
2.39958 
3.7152 
2.31609 
2.38139 
3.73889 
2.40509 
2.45471 
3.63307 
3.72378 
3.66669 
2.38858 
3.71843 
2.36518 
2.377 
2.34918 
3.73447 
2.3811 
2.30333 
3.7405 
3.75534 
2.28333 
3.75671 
2.31793 
2.29592 
2.35545 
3.72529 
3.74852 
2.34911 
2.34181 
2.42467 
3.74599 
3.76514 
2.43852 
3.72562 
2.28343 
2.34969 
3.70801 
2.26066 
3.7022 
2.35766 
2.42296 
2.33954 
3.769 
3.75998 
3.73216 
3.76554 
2.37646 
2.24246 
2.36466 
3.6719 
2.32065 
3.76793 
2.22151 
2.39882 
2.43064 
2.33697 
3.59209 
3.63216 
3.67222 
2.4719 
2.32433 
3.72935 
3.71605 
2.32067 
2.3634 
3.71181 
2.41979 
2.43745 
2.36992 
2.35085 
3.74487 
3.72526 
2.34429 
2.36321 
2.39741 
3.71448 
2.34459 
2.36185 
3.73551 
2.28659 
2.40267 
3.66824 
2.38924 
2.34384 
2.25916 
2.41917 
3.76037 
2.3164 
3.76777 
3.75561 
2.28196 
3.76737 
2.33057 
2.25315 
2.35236 
2.42417 
3.74516 
2.28858 
3.73976 
2.2422 
2.33067 
3.62388 
3.75926 
2.41934 
2.36429 
3.73012 
2.36472 
2.30461 
3.71376 
3.72685 
2.28317 
2.43697 
2.31418 
2.32156 
2.38852 
2.29388 
2.34075 
3.73761 
2.34726 
3.74707 
2.46147 
2.36602 
2.39842 
3.73931 
2.35424 
3.76066 
2.35053 
2.33621 
2.37887 
3.64879 
2.36573 
3.74098 
2.18338 
3.7357 
2.33598 
3.62483 
2.27184 
2.30474 
3.6596 
2.34129 
2.35102 
3.7433 
3.75234 
2.36663 
2.41008 
2.34034 
2.35774 
3.65871 
3.73116 
2.29325 
2.39627 
3.76722 
2.29257 
3.74765 
3.58249 
3.74137 
3.73546 
2.31482 
2.221 
2.29918 
2.29731 
3.65996 
2.33466 
2.37904 
3.71082 
3.75084 
2.29316 
2.31978 
3.70422 
2.42823 
2.41388 
2.45555 
3.72279 
2.26891 
2.4232 
3.7331 
2.23511 
2.33591 
3.75223 
2.36746 
2.31296 
2.44149 
3.69014 
3.75609 
2.25553 
2.24452 
2.3945 
3.73113 
2.31114 
3.74687 
2.28711 
3.72952 
2.32839 
3.66933 
2.43002 
2.34417 
2.37036 
2.47269 
3.76143 
3.66696 
3.72607 
2.42331 
2.32509 
2.3763 
3.67658 
2.35091 
2.34263 
2.27956 
2.22051 
3.76527 
3.69497 
2.41781 
2.29422 
2.32523 
3.74584 
3.757 
3.68658 
3.75166 
3.72317 
2.3166 
2.36113 
3.76334 
2.31209 
2.35366 
2.39951 
2.37101 
2.33604 
2.46815 
2.44752 
2.39539 
3.67343 
2.31972 
2.28145 
3.67235 
2.2787 
2.35236 
3.76239 
3.75906 
2.5312 
2.27369 
3.76844 
3.70646 
3.74508 
2.39783 
2.35869 
3.74306 
2.30057 
2.37096 
2.41516 
2.51416 
3.71404 
2.37962 
2.33269 
2.2805 
2.27327 
3.76981 
2.44827 
2.4201 
2.56648 
3.771 
3.756 
3.72336 
2.4098 
2.3633 
2.37154 
2.27108 
3.69493 
2.47712 
2.27377 
3.71354 
3.76752 
2.36671 
2.40585 
2.44913 
2.33187 
3.76747 
2.36784 
2.3697 
3.75722 
2.32548 
3.73212 
3.60498 
3.69454 
2.30869 
2.32919 
2.47005 
2.39024 
3.64483 
2.34481 
2.35123 
2.42623 
2.42135 
3.74914 
2.28703 
2.42613 
3.75693 
3.74033 
2.29739 
2.26164 
3.71537 
2.30788 
3.74931 
2.40813 
2.32156 
2.3515 
3.72323 
3.76045 
3.76662 
3.74743 
3.67811 
2.2934 
2.22504 
2.44292 
2.42346 
2.27599 
2.34937 
3.73973 
3.66405 
3.68242 
2.44398 
2.32009 
2.32993 
3.75643 
2.37061 
3.73979 
2.40175 
2.51865 
2.48313 
2.34913 
3.63785 
2.38481 
2.38908 
3.75363 
2.33366 
3.73195 
2.3266 
2.33722 
2.26267 
3.71697 
3.75751 
3.74843 
2.31495 
3.76333 
2.38994 
2.33716 
2.39731 
3.62495 
3.68814 
2.27525 
2.29873 
2.40189 
3.72064 
3.76613 
2.36799 
2.31041 
3.76971 
2.26729 
2.35517 
2.41184 
2.37454 
2.37092 
2.33198 
2.40264 
3.7422 
2.26246 
2.31135 
3.75322 
2.32453 
3.73839 
3.73741 
2.31621 
2.31076 
2.33852 
2.30202 
3.72215 
3.73683 
3.58392 
2.38332 
2.43533 
2.2534 
2.3346 
3.76929 
2.44396 
2.40821 
3.65151 
3.6672 
2.32491 
2.38417 
3.7014 
2.30256 
2.44034 
2.28092 
2.39259 
3.70887 
2.20282 
2.39776 
2.36383 
2.34937 
3.7636 
2.38331 
2.4541 
2.32097 
2.28257 
3.69414 
2.46765 
2.48722 
2.39058 
2.26614 
3.67276 
3.69966 
3.66529 
3.76959 
2.38452 
3.64887 
2.24904 
3.6654 
2.38362 
2.43611 
2.48919 
2.21864 
3.72077 
3.65446 
2.31992 
3.56275 
2.30988 
2.32331 
2.49364 
3.77023 
3.6741 
3.61745 
2.31696 
3.75012 
2.44453 
2.37108 
3.66528 
3.74935 
2.23161 
3.76901 
2.36807 
2.38946 
2.49812 
2.3739 
3.63909 
2.47326 
2.32454 
2.36445 
3.76596 
3.76484 
3.74055 
3.68484 
2.306 
2.39243 
2.4176 
2.3913 
2.4108 
2.27491 
3.70129 
3.76878 
3.73196 
3.74412 
2.41136 
2.30241 
3.51457 
3.75484 
2.28522 
2.46091 
2.46294 
3.71184 
2.26948 
2.41852 
3.70382 
3.75932 
2.3544 
2.40143 
3.71513 
2.28881 
2.29251 
3.71758 
3.70424 
3.64243 
2.31238 
3.59232 
2.35942 
2.23017 
3.67126 
2.4462 
2.37775 
3.76015 
2.3552 
3.75606 
2.39473 
2.34271 
3.70898 
2.40182 
2.32798 
2.3779 
2.27948 
3.71841 
3.76618 
3.76644 
2.35261 
3.72325 
2.38681 
2.32973 
3.68739 
2.36997 
2.31816 
2.44679 
2.34841 
3.73111 
3.68888 
2.37061 
2.50668 
3.70111 
2.48701 
2.3584 
3.66717 
2.26627 
2.40491 
3.73142 
3.75733 
3.70304 
3.67322 
2.40168 
2.28449 
3.69264 
3.67994 
2.41561 
2.35865 
3.64914 
2.45576 
2.20262 
3.59213 
3.74561 
2.41453 
2.3764 
2.49182 
3.76591 
3.73336 
2.39056 
2.33668 
2.39966 
2.39726 
3.67868 
3.72621 
3.58154 
2.38247 
3.7586 
2.35553 
2.28687 
3.76722 
2.45846 
2.43468 
3.69879 
2.31666 
2.57117 
3.75277 
2.28449 
3.76903 
2.34548 
3.75708 
2.35031 
3.76731 
3.71193 
2.34418 
2.32434 
2.36874 
2.36043 
3.73169 
3.72464 
2.31809 
3.68815 
2.37689 
2.38818 
2.29719 
3.71776 
3.74931 
3.7129 
2.29807 
2.32861 
2.28653 
2.35444 
3.75886 
3.76488 
2.37583 
2.41836 
3.75268 
2.31013 
2.3421 
2.39005 
2.33739 
3.7371 
2.38893 
3.5466 
2.25126 
3.67707 
2.44208 
2.26269 
3.76257 
3.65638 
3.70933 
3.72476 
3.64507 
2.36134 
2.33824 
3.6654 
3.66709 
3.74608 
2.22625 
2.32059 
2.3857 
3.61255 
2.33238 
2.36103 
2.27066 
2.41731 
2.40014 
3.74214 
3.71428 
2.36013 
2.3532 
2.29006 
3.71841 
3.72881 
2.33179 
2.42225 
2.35622 
2.42898 
2.37552 
2.43377 
2.48251 
2.30468 
3.73901 
2.34769 
3.65274 
2.30202 
3.55537 
2.30256 
2.32386 
2.4472 
2.32962 
3.72016 
2.23052 
3.77116 
2.44071 
2.31192 
3.58223 
2.3315 
3.65652 
3.68447 
2.5414 
2.35384 
2.43209 
2.42293 
3.6518 
2.23029 
3.69625 
2.42329 
3.75957 
2.39216 
3.69966 
2.38078 
3.76387 
2.37675 
2.37492 
2.31078 
3.66902 
3.70854 
2.27684 
3.73418 
2.36764 
2.42686 
3.74722 
3.75275 
2.31216 
2.45588 
2.39257 
2.25451 
3.74084 
2.37171 
2.29476 
3.73119 
3.69263 
2.34497 
2.3109 
2.44824 
2.3722 
2.5228 
2.3529 
3.70838 
2.34903 
3.71428 
3.7616 
3.71882 
2.3226 
2.23994 
2.36002 
2.32972 
3.76198 
3.73776 
2.39331 
2.32357 
2.36019 
2.35212 
3.69868 
2.36258 
3.72967 
2.33192 
2.44013 
2.32543 
3.69956 
3.75332 
3.7154 
2.27525 
2.27175 
2.28497 
2.41761 
3.68758 
3.74578 
2.37057 
3.70562 
2.39689 
3.73824 
2.33821 
3.76237 
2.35628 
2.39373 
3.75794 
2.30446 
2.3317 
3.65482 
2.32876 
2.32648 
3.763 
2.46483 
3.71241 
2.42173 
2.26636 
2.33391 
3.71332 
2.37172 
3.75213 
2.29521 
2.29147 
3.72185 
2.46118 
2.29227 
2.38908 
2.40736 
3.75379 
2.40793 
2.34348 
3.66472 
2.41274 
2.39412 
3.7427 
2.44366 
3.7699 
3.65786 
2.33551 
3.74159 
2.33117 
2.38915 
2.34758 
2.41936 
2.39896 
3.72774 
3.71432 
2.34708 
2.35113 
2.47593 
3.74957 
2.38997 
3.62422 
2.33596 
3.73225 
2.31305 
2.43508 
2.38175 
2.35404 
2.43375 
2.36339 
3.65486 
2.42052 
3.76316 
2.26826 
3.70109 
2.2748 
3.75006 
3.76514 
2.41687 
3.56947 
2.41952 
2.3843 
2.36905 
2.4327 
3.76238 
2.2169 
2.28153 
3.71366 
3.62985 
3.75835 
2.31792 
2.40131 
3.75868 
2.43527 
3.74562 
2.39724 
3.71115 
3.69864 
2.36681 
2.28768 
2.33203 
3.66645 
3.71811 
2.33926 
2.3047 
3.7524 
2.23814 
3.71557 
3.75102 
2.32432 
3.75186 
2.37179 
3.70026 
3.71879 
2.38284 
2.44358 
3.75017 
2.2409 
2.30603 
3.7559 
2.51164 
2.32391 
2.47394 
2.43978 
3.75455 
2.40653 
3.69868 
2.36099 
3.74856 
3.69278 
2.35325 
2.22977 
3.69016 
3.75006 
3.73152 
2.37894 
2.37782 
2.40508 
3.71471 
3.74334 
2.32566 
3.73831 
2.34784 
2.41782 
2.44608 
3.75506 
3.67661 
3.76114 
2.46162 
3.72812 
2.27052 
2.45672 
2.34115 
3.73684 
2.26911 
2.32948 
3.67171 
2.48333 
2.42742 
3.47076 
2.29847 
2.38301 
3.65635 
3.73918 
3.58295 
2.32084 
3.70318 
2.3784 
3.72859 
2.38261 
2.33656 
3.75613 
2.37052 
2.31725 
2.4697 
2.42135 
2.35756 
3.71005 
2.32082 
3.75246 
2.29934 
2.28594 
2.37019 
3.74299 
2.5407 
3.7598 
2.53813 
2.31713 
3.73912 
3.66325 
2.24092 
3.73336 
2.41402 
3.75478 
2.3027 
3.7248 
2.33411 
2.32238 
2.37945 
2.40883 
3.76382 
3.76961 
3.74087 
2.28653 
2.43061 
2.36386 
3.68635 
3.66725 
2.32497 
3.73055 
2.27724 
3.66068 
3.68721 
2.32755 
2.40349 
3.65988 
3.74154 
2.31409 
2.28528 
3.52176 
2.3244 
2.34062 
2.38816 
2.57485 
2.38801 
2.35475 
3.6584 
3.74877 
3.65706 
3.75329 
2.40984 
2.28451 
3.76044 
2.32369 
3.76875 
2.38353 
3.75508 
2.33364 
2.37118 
2.45842 
2.29616 
3.73496 
3.69532 
2.29265 
2.47145 
2.3226 
3.74439 
3.75952 
2.2884 
2.28352 
3.70744 
3.74932 
2.33801 
3.72586 
3.7679 
2.3712 
3.73542 
2.33058 
3.67752 
3.69558 
3.63046 
2.34403 
2.31395 
2.42897 
2.30822 
3.76422 
2.43813 
2.36348 
3.67493 
2.34497 
2.3274 
3.70362 
2.28059 
2.30385 
3.68615 
3.73026 
2.28405 
2.48427 
3.61631 
2.35405 
3.71201 
2.37433 
2.30094 
2.45087 
3.71774 
3.68176 
3.74918 
2.26638 
2.38249 
3.68756 
3.7688 
2.3128 
2.32323 
3.62758 
2.30392 
2.33025 
3.76792 
2.4241 
2.33698 
3.7636 
3.64492 
2.3379 
3.72778 
2.38968 
2.34034 
2.32689 
2.28451 
2.27765 
3.72634 
3.74637 
3.63443 
2.31991 
2.28839 
3.74418 
3.72681 
2.37805 
2.36769 
3.6142 
2.26674 
3.66008 
3.71145 
2.29504 
2.32232 
3.7174 
2.37386 
3.7496 
2.37785 
2.35405 
3.61777 
2.33246 
2.40668 
2.37697 
2.3377 
2.31633 
2.3501 
2.32551 
2.40011 
3.69891 
3.70676 
3.68769 
2.4044 
2.4417 
3.75595 
3.76007 
3.74638 
2.41095 
2.39917 
2.32496 
2.36508 
2.38953 
3.7579 
2.38158 
2.43078 
2.31864 
3.69549 
3.7086 
3.73519 
3.67296 
3.74621 
2.30963 
2.24319 
3.66535 
3.73965 
3.72531 
2.36382 
2.33464 
2.33828 
2.43287 
3.69035 
2.43313 
2.38695 
2.32794 
2.47234 
3.74814 
3.65075 
2.33979 
3.70876 
2.32302 
3.69202 
3.75787 
3.75882 
2.43694 
2.27397 
2.36629 
3.70336 
2.28471 
3.72704 
2.38773 
2.29926 
3.71033 
3.75524 
3.68946 
2.33623 
2.27276 
2.33822 
2.52481 
3.66237 
2.30238 
3.75632 
3.71151 
2.29246 
2.40214 
3.76304 
3.76539 
2.32715 
3.66473 
3.70281 
3.73609 
2.26742 
2.41034 
3.69702 
3.69491 
2.21901 
2.34555 
3.73313 
2.33461 
2.37309 
2.42812 
2.30563 
2.33922 
2.29152 
3.64424 
2.45629 
2.41446 
2.36423 
2.39276 
2.33787 
2.40603 
3.72051 
2.39042 
3.73043 
2.29014 
2.46146 
3.6199 
2.27659 
2.3531 
3.73852 
3.74465 
2.23507 
3.73528 
2.41173 
2.36747 
3.74499 
2.43138 
2.40136 
2.2674 
2.35783 
2.43018 
3.59302 
2.27221 
2.49278 
2.38626 
3.70167 
2.39824 
3.75603 
2.42901 
3.63367 
3.68122 
2.33126 
2.29756 
2.35452 
3.70676 
2.45225 
2.40659 
2.36341 
3.68802 
3.74178 
3.7004 
2.33387 
2.42503 
2.32384 
2.31496 
3.75854 
3.71677 
2.25613 
3.70374 
2.34697 
2.39491 
3.65209 
2.44036 
3.60347 
2.39479 
2.21625 
3.71272 
3.68689 
3.7552 
2.43214 
3.72168 
3.71933 
2.41596 
3.65647 
2.28281 
3.64637 
2.50974 
2.31482 
2.40154 
3.71679 
3.70555 
3.76241 
2.49264 
2.31146 
3.76881 
2.47338 
2.33326 
2.34505 
2.30782 
3.76582 
3.72168 
3.65437 
2.29568 
2.39753 
3.62138 
2.29052 
3.70943 
2.27909 
3.71856 
3.70077 
2.43264 
2.39797 
2.45448 
2.43072 
2.27765 
2.25968 
2.40929 
3.67171 
2.30648 
3.75766 
3.63588 
3.76875 
3.72472 
2.35642 
2.26986 
3.69626 
2.37962 
2.39287 
3.72991 
3.73513 
2.41087 
2.33314 
2.39857 
2.30647 
3.71586 
2.26511 
3.6464 
2.2142 
3.69561 
2.47719 
3.54125 
2.34121 
2.37618 
2.54713 
3.69239 
2.23824 
3.70794 
2.42971 
3.66791 
3.7126 
2.46773 
2.36427 
2.37154 
2.46236 
3.69471 
2.46289 
2.3695 
3.71171 
3.7267 
3.70907 
2.27389 
3.6864 
2.41815 
3.7665 
2.26459 
2.37601 
3.74059 
2.4192 
2.49664 
2.35623 
2.33817 
2.27513 
2.46042 
3.68715 
2.39951 
2.40899 
3.73158 
2.33679 
3.7534 
3.76828 
2.46431 
2.31087 
3.72517 
2.35355 
2.41818 
2.26486 
3.7666 
2.3614 
2.40127 
3.76936 
3.74542 
3.63897 
2.3698 
2.343 
2.47546 
2.28297 
3.73316 
3.7037 
2.42938 
2.3418 
2.34063 
3.65733 
2.28898 
2.42304 
2.41774 
2.28338 
2.24218 
3.66401 
3.65196 
2.36789 
3.73472 
2.24792 
2.30917 
3.69429 
2.40871 
3.75339 
3.70241 
3.69615 
2.36337 
2.31345 
2.36459 
2.34272 
2.30688 
2.36586 
3.70855 
2.40982 
2.27368 
2.40082 
2.44362 
3.73654 
2.35546 
2.41997 
2.47956 
2.23857 
3.61657 
3.71877 
2.33076 
3.72922 
2.33065 
2.41993 
2.39601 
3.62901 
2.24988 
3.76725 
2.34046 
3.73985 
3.73901 
3.77105 
2.31274 
2.376 
3.72288 
2.51613 
2.42977 
2.34786 
2.37917 
3.63034 
2.3431 
2.41556 
3.76941 
2.249 
3.75898 
3.6823 
2.31728 
3.7689 
2.36492 
2.31919 
3.76009 
2.3788 
3.7378 
2.2905 
3.74607 
3.68571 
2.40732 
2.37336 
2.32613 
2.41626 
3.75048 
2.35231 
2.37962 
3.70966 
2.31424 
3.72794 
2.36538 
2.4202 
2.3191 
2.35694 
2.26247 
2.3261 
3.74196 
3.70421 
2.39973 
2.40537 
2.37123 
3.69361 
2.2727 
2.33762 
2.37304 
3.76687 
2.34717 
2.31223 
2.34771 
3.77031 
2.36156 
2.38057 
2.35054 
2.38902 
3.7381 
3.76587 
2.3113 
2.36406 
3.73123 
2.28661 
2.44941 
3.75976 
3.71773 
3.69622 
2.35927 
2.37939 
3.75277 
2.25308 
3.76471 
3.68294 
3.73436 
2.46106 
2.31041 
3.72475 
3.61935 
2.32365 
2.3834 
3.68365 
3.65175 
2.36257 
2.30694 
3.68879 
2.43931 
2.36577 
2.47861 
3.67964 
3.76118 
2.26581 
2.44672 
2.46513 
2.38572 
2.32477 
2.32404 
3.67487 
3.68737 
2.41764 
2.29768 
2.22136 
3.75073 
3.72838 
2.41653 
2.44258 
2.27595 
2.34306 
3.73157 
3.75145 
2.3199 
2.36174 
2.29305 
3.68688 
2.3755 
2.47637 
2.35943 
2.19288 
3.73172 
3.64591 
3.76657 
3.73239 
2.34664 
2.36839 
2.39781 
2.37984 
3.55532 
3.76919 
2.34206 
3.57041 
3.58376 
2.27974 
2.30183 
3.73964 
3.76044 
2.31352 
2.43627 
3.71342 
2.38956 
2.44534 
3.7043 
2.34544 
3.75012 
2.41175 
2.31962 
2.32712 
3.69153 
2.4046 
2.32699 
2.33507 
3.73086 
3.68308 
2.30474 
2.23906 
3.76642 
2.26872 
3.75377 
2.39461 
2.36692 
2.3024 
2.41684 
2.35936 
3.62198 
3.7428 
3.75524 
2.42776 
2.32866 
2.3403 
2.54873 
2.30156 
2.37452 
3.72078 
2.45539 
2.25908 
3.67768 
2.34157 
2.37764 
2.51973 
3.75765 
3.72487 
2.34031 
2.25383 
3.75146 
2.34286 
2.34584 
2.32984 
3.73925 
3.7217 
2.32632 
2.29772 
3.70437 
2.45163 
3.73162 
2.38276 
2.3176 
2.41625 
3.7642 
2.32828 
3.68321 
3.76982 
3.74774 
3.72073 
2.53136 
3.76315 
2.3756 
2.22883 
3.70382 
3.68447 
3.71612 
2.36409 
2.34343 
3.72291 
2.42715 
2.29046 
2.38512 
3.74596 
2.41636 
3.74185 
3.71723 
3.75101 
2.35978 
2.35118 
2.28808 
2.29299 
3.70518 
3.70164 
3.69542 
2.31663 
2.44576 
3.75596 
2.32119 
2.29674 
3.75401 
2.29754 
2.40858 
3.71241 
2.3914 
2.2864 
3.76931 
3.68214 
3.61164 
2.3368 
2.34669 
3.72695 
2.36158 
2.25929 
3.65409 
2.32019 
2.42333 
3.66494 
3.75434 
2.43984 
2.20726 
2.32396 
2.38695 
3.68273 
3.76221 
2.28206 
2.34248 
2.37343 
2.43634 
2.37633 
2.45757 
2.29655 
3.70482 
3.68415 
2.37892 
3.73268 
2.42615 
2.33976 
3.73395 
3.73294 
3.71429 
3.69669 
2.37763 
2.35006 
3.73 
2.3188 
2.392 
3.73666 
3.74682 
2.33582 
3.7163 
2.37498 
2.34891 
3.76364 
2.36791 
2.38977 
2.23477 
3.66463 
3.72686 
3.754 
3.70231 
2.35436 
2.3328 
2.34504 
3.7611 
3.72846 
2.31158 
2.36731 
2.32866 
3.76636 
2.43951 
2.32698 
2.37703 
3.74831 
2.2977 
2.37334 
3.74927 
2.37212 
2.27714 
2.32295 
3.76888 
3.66056 
3.70995 
2.34665 
2.31077 
2.47397 
2.36166 
3.73883 
2.44334 
3.76305 
2.38289 
2.28689 
3.72983 
3.771 
2.31188 
2.51991 
2.34716 
2.4022 
2.3473 
3.72263 
2.38629 
2.29951 
2.30363 
3.62617 
3.72901 
2.2852 
3.74825 
2.28559 
2.24268 
3.68558 
3.66741 
3.77108 
2.35871 
2.40229 
2.3817 
3.72327 
2.37141 
3.73972 
3.74182 
2.44563 
2.37074 
3.57082 
3.59293 
3.74663 
3.70519 
2.33911 
2.26671 
2.44864 
2.43699 
2.34414 
2.34624 
2.47356 
2.25553 
3.67166 
2.3858 
2.31904 
2.26068 
3.68712 
2.40206 
3.7655 
3.75572 
2.40294 
3.61873 
2.27231 
2.34061 
2.2593 
2.32663 
3.70061 
2.33468 
3.72877 
2.35198 
2.33847 
3.72881 
3.76963 
2.28071 
2.29508 
2.33655 
2.3141 
3.67716 
3.75078 
2.33058 
2.43984 
3.71057 
2.39486 
2.30179 
2.3963 
2.43206 
2.37803 
2.28108 
2.42685 
2.41331 
2.3443 
2.3349 
2.41258 
3.75346 
2.45615 
3.70961 
2.34913 
2.35298 
2.27129 
2.3649 
3.66953 
2.44882 
3.73552 
2.32316 
2.40556 
3.66685 
2.35431 
2.20647 
2.3477 
2.41011 
3.71779 
3.75625 
3.75591 
2.3848 
3.70391 
2.22184 
3.76717 
2.36236 
2.29263 
3.7655 
3.75187 
2.3914 
2.30108 
2.34081 
2.34152 
3.65636 
2.31878 
2.39536 
2.29174 
3.71871 
3.73974 
2.27557 
2.54748 
2.35597 
3.68543 
2.47202 
3.70092 
3.72473 
3.76598 
2.39895 
2.31583 
3.75215 
2.39844 
2.44276 
3.74642 
2.25543 
2.36498 
3.70003 
2.34301 
2.37746 
2.43574 
2.39067 
2.50277 
3.7318 
2.43084 
2.2597 
3.68431 
3.72728 
3.63808 
2.32099 
2.39647 
2.36882 
3.72241 
3.73215 
3.76326 
3.74689 
2.35031 
3.76094 
2.29528 
2.26565 
3.70681 
3.75893 
2.31514 
2.36508 
2.4508 
2.40204 
3.71662 
2.41353 
3.72188 
2.3309 
2.2535 
3.72163 
3.73761 
2.31145 
2.38251 
3.73129 
2.31163 
3.7654 
2.4261 
3.74279 
3.73908 
2.31063 
2.34178 
2.37552 
3.73654 
3.63996 
2.32421 
3.7606 
2.43324 
2.37659 
3.62981 
2.3167 
2.31699 
2.29807 
2.29474 
3.70971 
3.71718 
3.63397 
2.33139 
3.65858 
3.72173 
2.35446 
2.3477 
2.35775 
2.41489 
3.61454 
2.33558 
2.2792 
2.37567 
2.3622 
3.56905 
2.34624 
2.33245 
3.75447 
2.35665 
2.31856 
2.33688 
2.4087 
2.31558 
2.27608 
3.69887 
2.3748 
3.67499 
2.25456 
3.55526 
2.49977 
2.35906 
3.66844 
3.67768 
2.33549 
3.68084 
3.72011 
2.23862 
3.76863 
2.36277 
2.41636 
2.42391 
3.75252 
2.32508 
3.76934 
2.39351 
2.34311 
2.44133 
2.41924 
2.35387 
3.73495 
2.32003 
2.26988 
2.40475 
3.75924 
3.76435 
2.35351 
3.73102 
2.32651 
2.38524 
3.77063 
3.66373 
2.30655 
2.38337 
3.72885 
2.39212 
2.43692 
3.6955 
3.72405 
2.37778 
2.30694 
3.67029 
2.34901 
3.72617 
3.63466 
2.386 
2.3827 
2.29417 
3.73586 
2.37939 
2.40041 
2.32778 
2.31652 
3.66039 
2.45516 
2.33254 
2.44901 
2.32581 
3.73839 
3.7469 
3.73084 
3.76931 
2.26973 
2.42728 
3.73486 
2.39142 
2.37455 
2.30274 
2.37095 
3.72366 
2.44541 
3.73332 
3.61074 
2.36633 
2.44978 
3.74537 
2.36853 
2.43834 
2.24715 
2.32974 
3.71665 
3.69422 
3.68028 
3.76785 
2.31171 
2.36512 
2.27799 
3.66128 
2.2652 
3.76169 
2.37005 
3.73978 
2.39672 
3.75003 
3.63375 
2.36259 
2.41252 
3.76443 
2.24933 
2.39778 
3.76168 
2.38388 
3.76255 
2.39621 
2.30458 
2.35269 
2.3686 
3.70378 
2.29959 
2.35608 
3.73592 
3.69794 
2.27941 
3.73624 
3.69051 
2.44082 
2.2964 
3.72499 
2.43673 
3.72414 
2.30156 
2.40984 
3.72879 
2.33986 
3.67496 
2.34164 
3.61468 
3.75277 
3.72813 
2.33618 
3.68117 
2.31828 
3.76679 
2.33695 
2.45544 
3.75162 
3.70608 
2.34525 
3.67998 
2.38398 
2.36023 
2.29863 
2.51652 
2.4046 
2.32239 
3.72006 
3.75091 
2.32024 
2.38972 
2.42037 
3.74036 
2.45176 
3.62973 
3.76926 
2.26735 
2.42934 
3.72059 
2.3231 
3.76039 
3.65451 
2.29407 
2.40756 
3.75389 
2.43722 
3.70351 
2.32838 
3.65504 
3.7694 
2.25355 
3.7594 
3.73284 
2.27188 
3.69846 
2.3999 
3.73898 
3.71211 
2.32608 
2.33082 
2.39507 
2.39043 
3.74411 
2.42622 
3.71551 
3.76968 
3.75544 
2.32464 
2.39328 
3.73196 
2.372 
2.40071 
2.3397 
3.72895 
2.30305 
2.54295 
2.40421 
2.50802 
2.34548 
3.76583 
3.72755 
2.33877 
3.63403 
3.69756 
2.45994 
2.32234 
2.37394 
2.36249 
3.73501 
3.7366 
2.26577 
3.70743 
3.72954 
2.40779 
2.50438 
2.44907 
2.35705 
2.29558 
3.72517 
3.7584 
2.29588 
3.73383 
3.74987 
3.43766 
2.32902 
3.68329 
2.39466 
3.65101 
2.39851 
3.75813 
2.44367 
3.76005 
3.7278 
3.71953 
2.31984 
2.38145 
2.35734 
2.34856 
2.28233 
3.75969 
3.65329 
3.67883 
2.28707 
3.76726 
2.351 
2.37315 
3.76824 